<?xml version="1.0" encoding="ISO-8859-1"?>
<modeling>
 <generator>
  <i name="program" type="string">vasp </i>
  <i name="version" type="string">5.4.4.18Apr17-6-g9f103f2a35  </i>
  <i name="subversion" type="string">(build Jul 16 2023 17:01:57) complex            parallel </i>
  <i name="platform" type="string">LinuxIFC </i>
  <i name="date" type="string">2025 09 21 </i>
  <i name="time" type="string">10:40:16 </i>
 </generator>
 <incar>
  <i type="string" name="SYSTEM"> Graphene BAND</i>
  <i type="string" name="PREC">accurate</i>
  <i type="string" name="ALGO"> Normal</i>
  <i type="int" name="ICHARG">    11</i>
  <i type="int" name="IBRION">    -1</i>
  <i name="EDIFF">      0.00000100</i>
  <i name="EDIFFG">     -0.01000000</i>
  <i type="int" name="NSW">     0</i>
  <i name="ENCUT">    550.00000000</i>
  <i type="int" name="NEDOS">  3000</i>
  <i type="logical" name="LREAL"> F  </i>
  <i type="logical" name="LPLANE"> T  </i>
  <i type="int" name="ISMEAR">     0</i>
  <i name="SIGMA">      0.00100000</i>
  <i type="logical" name="LWAVE"> F  </i>
  <i type="logical" name="LCHARG"> F  </i>
  <i type="int" name="LORBIT">    11</i>
  <v type="int" name="KPOINT_BSE">    -1     0     0     0</v>
 </incar>
 <structure name="primitive_cell" >
  <crystal>
   <varray name="basis" >
    <v>       2.46810000       0.00000000       0.00000000 </v>
    <v>      -1.23000000       2.13000000       0.00000000 </v>
    <v>       0.00000000       0.00000000      20.00000000 </v>
   </varray>
   <i name="volume">    105.14106000 </i>
   <varray name="rec_basis" >
    <v>       0.40516997       0.23397139       0.00000000 </v>
    <v>       0.00000000       0.46948357       0.00000000 </v>
    <v>       0.00000000       0.00000000       0.05000000 </v>
   </varray>
  </crystal>
  <varray name="positions" >
   <v>       0.33338056      -0.33328647      -0.50000000 </v>
   <v>      -0.33338056       0.33328647      -0.50000000 </v>
  </varray>
 </structure>
 <varray name="primitive_index" >
  <v type="int" >        1 </v>
  <v type="int" >        2 </v>
 </varray>
 <kpoints>
  <generation param="listgenerated">
   <i name="divisions" type="int">      40 </i>
   <v>       0.00000000       0.00000000       0.00000000 </v>
   <v>       0.50000000       0.00000000       0.00000000 </v>
   <v>       0.33333000       0.33333000       0.00000000 </v>
   <v>       0.00000000       0.00000000       0.00000000 </v>
  </generation>
  <varray name="kpointlist" >
   <v>       0.00000000       0.00000000       0.00000000 </v>
   <v>       0.01282051       0.00000000       0.00000000 </v>
   <v>       0.02564103       0.00000000       0.00000000 </v>
   <v>       0.03846154       0.00000000       0.00000000 </v>
   <v>       0.05128205       0.00000000       0.00000000 </v>
   <v>       0.06410256       0.00000000       0.00000000 </v>
   <v>       0.07692308       0.00000000       0.00000000 </v>
   <v>       0.08974359       0.00000000       0.00000000 </v>
   <v>       0.10256410       0.00000000       0.00000000 </v>
   <v>       0.11538462       0.00000000       0.00000000 </v>
   <v>       0.12820513       0.00000000       0.00000000 </v>
   <v>       0.14102564       0.00000000       0.00000000 </v>
   <v>       0.15384615       0.00000000       0.00000000 </v>
   <v>       0.16666667       0.00000000       0.00000000 </v>
   <v>       0.17948718       0.00000000       0.00000000 </v>
   <v>       0.19230769       0.00000000       0.00000000 </v>
   <v>       0.20512821       0.00000000       0.00000000 </v>
   <v>       0.21794872       0.00000000       0.00000000 </v>
   <v>       0.23076923       0.00000000       0.00000000 </v>
   <v>       0.24358974       0.00000000       0.00000000 </v>
   <v>       0.25641026       0.00000000       0.00000000 </v>
   <v>       0.26923077       0.00000000       0.00000000 </v>
   <v>       0.28205128       0.00000000       0.00000000 </v>
   <v>       0.29487179       0.00000000       0.00000000 </v>
   <v>       0.30769231       0.00000000       0.00000000 </v>
   <v>       0.32051282       0.00000000       0.00000000 </v>
   <v>       0.33333333       0.00000000       0.00000000 </v>
   <v>       0.34615385       0.00000000       0.00000000 </v>
   <v>       0.35897436       0.00000000       0.00000000 </v>
   <v>       0.37179487       0.00000000       0.00000000 </v>
   <v>       0.38461538       0.00000000       0.00000000 </v>
   <v>       0.39743590       0.00000000       0.00000000 </v>
   <v>       0.41025641       0.00000000       0.00000000 </v>
   <v>       0.42307692       0.00000000       0.00000000 </v>
   <v>       0.43589744       0.00000000       0.00000000 </v>
   <v>       0.44871795       0.00000000       0.00000000 </v>
   <v>       0.46153846       0.00000000       0.00000000 </v>
   <v>       0.47435897       0.00000000       0.00000000 </v>
   <v>       0.48717949       0.00000000       0.00000000 </v>
   <v>       0.50000000       0.00000000       0.00000000 </v>
   <v>       0.50000000       0.00000000       0.00000000 </v>
   <v>       0.49572641       0.00854692       0.00000000 </v>
   <v>       0.49145282       0.01709385       0.00000000 </v>
   <v>       0.48717923       0.02564077       0.00000000 </v>
   <v>       0.48290564       0.03418769       0.00000000 </v>
   <v>       0.47863205       0.04273462       0.00000000 </v>
   <v>       0.47435846       0.05128154       0.00000000 </v>
   <v>       0.47008487       0.05982846       0.00000000 </v>
   <v>       0.46581128       0.06837538       0.00000000 </v>
   <v>       0.46153769       0.07692231       0.00000000 </v>
   <v>       0.45726410       0.08546923       0.00000000 </v>
   <v>       0.45299051       0.09401615       0.00000000 </v>
   <v>       0.44871692       0.10256308       0.00000000 </v>
   <v>       0.44444333       0.11111000       0.00000000 </v>
   <v>       0.44016974       0.11965692       0.00000000 </v>
   <v>       0.43589615       0.12820385       0.00000000 </v>
   <v>       0.43162256       0.13675077       0.00000000 </v>
   <v>       0.42734897       0.14529769       0.00000000 </v>
   <v>       0.42307538       0.15384462       0.00000000 </v>
   <v>       0.41880179       0.16239154       0.00000000 </v>
   <v>       0.41452821       0.17093846       0.00000000 </v>
   <v>       0.41025462       0.17948538       0.00000000 </v>
   <v>       0.40598103       0.18803231       0.00000000 </v>
   <v>       0.40170744       0.19657923       0.00000000 </v>
   <v>       0.39743385       0.20512615       0.00000000 </v>
   <v>       0.39316026       0.21367308       0.00000000 </v>
   <v>       0.38888667       0.22222000       0.00000000 </v>
   <v>       0.38461308       0.23076692       0.00000000 </v>
   <v>       0.38033949       0.23931385       0.00000000 </v>
   <v>       0.37606590       0.24786077       0.00000000 </v>
   <v>       0.37179231       0.25640769       0.00000000 </v>
   <v>       0.36751872       0.26495462       0.00000000 </v>
   <v>       0.36324513       0.27350154       0.00000000 </v>
   <v>       0.35897154       0.28204846       0.00000000 </v>
   <v>       0.35469795       0.29059538       0.00000000 </v>
   <v>       0.35042436       0.29914231       0.00000000 </v>
   <v>       0.34615077       0.30768923       0.00000000 </v>
   <v>       0.34187718       0.31623615       0.00000000 </v>
   <v>       0.33760359       0.32478308       0.00000000 </v>
   <v>       0.33333000       0.33333000       0.00000000 </v>
   <v>       0.33333000       0.33333000       0.00000000 </v>
   <v>       0.32478308       0.32478308       0.00000000 </v>
   <v>       0.31623615       0.31623615       0.00000000 </v>
   <v>       0.30768923       0.30768923       0.00000000 </v>
   <v>       0.29914231       0.29914231       0.00000000 </v>
   <v>       0.29059538       0.29059538       0.00000000 </v>
   <v>       0.28204846       0.28204846       0.00000000 </v>
   <v>       0.27350154       0.27350154       0.00000000 </v>
   <v>       0.26495462       0.26495462       0.00000000 </v>
   <v>       0.25640769       0.25640769       0.00000000 </v>
   <v>       0.24786077       0.24786077       0.00000000 </v>
   <v>       0.23931385       0.23931385       0.00000000 </v>
   <v>       0.23076692       0.23076692       0.00000000 </v>
   <v>       0.22222000       0.22222000       0.00000000 </v>
   <v>       0.21367308       0.21367308       0.00000000 </v>
   <v>       0.20512615       0.20512615       0.00000000 </v>
   <v>       0.19657923       0.19657923       0.00000000 </v>
   <v>       0.18803231       0.18803231       0.00000000 </v>
   <v>       0.17948538       0.17948538       0.00000000 </v>
   <v>       0.17093846       0.17093846       0.00000000 </v>
   <v>       0.16239154       0.16239154       0.00000000 </v>
   <v>       0.15384462       0.15384462       0.00000000 </v>
   <v>       0.14529769       0.14529769       0.00000000 </v>
   <v>       0.13675077       0.13675077       0.00000000 </v>
   <v>       0.12820385       0.12820385       0.00000000 </v>
   <v>       0.11965692       0.11965692       0.00000000 </v>
   <v>       0.11111000       0.11111000       0.00000000 </v>
   <v>       0.10256308       0.10256308       0.00000000 </v>
   <v>       0.09401615       0.09401615       0.00000000 </v>
   <v>       0.08546923       0.08546923       0.00000000 </v>
   <v>       0.07692231       0.07692231       0.00000000 </v>
   <v>       0.06837538       0.06837538       0.00000000 </v>
   <v>       0.05982846       0.05982846       0.00000000 </v>
   <v>       0.05128154       0.05128154       0.00000000 </v>
   <v>       0.04273462       0.04273462       0.00000000 </v>
   <v>       0.03418769       0.03418769       0.00000000 </v>
   <v>       0.02564077       0.02564077       0.00000000 </v>
   <v>       0.01709385       0.01709385       0.00000000 </v>
   <v>       0.00854692       0.00854692       0.00000000 </v>
   <v>       0.00000000       0.00000000       0.00000000 </v>
  </varray>
  <varray name="weights" >
   <v>       0.00833333 </v>
   <v>       0.00833333 </v>
   <v>       0.00833333 </v>
   <v>       0.00833333 </v>
   <v>       0.00833333 </v>
   <v>       0.00833333 </v>
   <v>       0.00833333 </v>
   <v>       0.00833333 </v>
   <v>       0.00833333 </v>
   <v>       0.00833333 </v>
   <v>       0.00833333 </v>
   <v>       0.00833333 </v>
   <v>       0.00833333 </v>
   <v>       0.00833333 </v>
   <v>       0.00833333 </v>
   <v>       0.00833333 </v>
   <v>       0.00833333 </v>
   <v>       0.00833333 </v>
   <v>       0.00833333 </v>
   <v>       0.00833333 </v>
   <v>       0.00833333 </v>
   <v>       0.00833333 </v>
   <v>       0.00833333 </v>
   <v>       0.00833333 </v>
   <v>       0.00833333 </v>
   <v>       0.00833333 </v>
   <v>       0.00833333 </v>
   <v>       0.00833333 </v>
   <v>       0.00833333 </v>
   <v>       0.00833333 </v>
   <v>       0.00833333 </v>
   <v>       0.00833333 </v>
   <v>       0.00833333 </v>
   <v>       0.00833333 </v>
   <v>       0.00833333 </v>
   <v>       0.00833333 </v>
   <v>       0.00833333 </v>
   <v>       0.00833333 </v>
   <v>       0.00833333 </v>
   <v>       0.00833333 </v>
   <v>       0.00833333 </v>
   <v>       0.00833333 </v>
   <v>       0.00833333 </v>
   <v>       0.00833333 </v>
   <v>       0.00833333 </v>
   <v>       0.00833333 </v>
   <v>       0.00833333 </v>
   <v>       0.00833333 </v>
   <v>       0.00833333 </v>
   <v>       0.00833333 </v>
   <v>       0.00833333 </v>
   <v>       0.00833333 </v>
   <v>       0.00833333 </v>
   <v>       0.00833333 </v>
   <v>       0.00833333 </v>
   <v>       0.00833333 </v>
   <v>       0.00833333 </v>
   <v>       0.00833333 </v>
   <v>       0.00833333 </v>
   <v>       0.00833333 </v>
   <v>       0.00833333 </v>
   <v>       0.00833333 </v>
   <v>       0.00833333 </v>
   <v>       0.00833333 </v>
   <v>       0.00833333 </v>
   <v>       0.00833333 </v>
   <v>       0.00833333 </v>
   <v>       0.00833333 </v>
   <v>       0.00833333 </v>
   <v>       0.00833333 </v>
   <v>       0.00833333 </v>
   <v>       0.00833333 </v>
   <v>       0.00833333 </v>
   <v>       0.00833333 </v>
   <v>       0.00833333 </v>
   <v>       0.00833333 </v>
   <v>       0.00833333 </v>
   <v>       0.00833333 </v>
   <v>       0.00833333 </v>
   <v>       0.00833333 </v>
   <v>       0.00833333 </v>
   <v>       0.00833333 </v>
   <v>       0.00833333 </v>
   <v>       0.00833333 </v>
   <v>       0.00833333 </v>
   <v>       0.00833333 </v>
   <v>       0.00833333 </v>
   <v>       0.00833333 </v>
   <v>       0.00833333 </v>
   <v>       0.00833333 </v>
   <v>       0.00833333 </v>
   <v>       0.00833333 </v>
   <v>       0.00833333 </v>
   <v>       0.00833333 </v>
   <v>       0.00833333 </v>
   <v>       0.00833333 </v>
   <v>       0.00833333 </v>
   <v>       0.00833333 </v>
   <v>       0.00833333 </v>
   <v>       0.00833333 </v>
   <v>       0.00833333 </v>
   <v>       0.00833333 </v>
   <v>       0.00833333 </v>
   <v>       0.00833333 </v>
   <v>       0.00833333 </v>
   <v>       0.00833333 </v>
   <v>       0.00833333 </v>
   <v>       0.00833333 </v>
   <v>       0.00833333 </v>
   <v>       0.00833333 </v>
   <v>       0.00833333 </v>
   <v>       0.00833333 </v>
   <v>       0.00833333 </v>
   <v>       0.00833333 </v>
   <v>       0.00833333 </v>
   <v>       0.00833333 </v>
   <v>       0.00833333 </v>
   <v>       0.00833333 </v>
   <v>       0.00833333 </v>
   <v>       0.00833333 </v>
  </varray>
 </kpoints>
 <parameters>
  <separator name="general" >
   <i type="string" name="SYSTEM">Graphene BAND</i>
   <i type="logical" name="LCOMPAT"> F  </i>
  </separator>
  <separator name="electronic" >
   <i type="string" name="PREC">accura</i>
   <i name="ENMAX">    550.00000000</i>
   <i name="ENAUG">    644.87300000</i>
   <i name="EDIFF">      0.00000100</i>
   <i type="int" name="IALGO">    38</i>
   <i type="int" name="IWAVPR">    10</i>
   <i type="int" name="NBANDS">    16</i>
   <i name="NELECT">      8.00000000</i>
   <i type="int" name="TURBO">     0</i>
   <i type="int" name="IRESTART">     0</i>
   <i type="int" name="NREBOOT">     0</i>
   <i type="int" name="NMIN">     0</i>
   <i name="EREF">      0.00000000</i>
   <separator name="electronic smearing" >
    <i type="int" name="ISMEAR">     0</i>
    <i name="SIGMA">      0.00100000</i>
    <i name="KSPACING">      0.50000000</i>
    <i type="logical" name="KGAMMA"> T  </i>
   </separator>
   <separator name="electronic projectors" >
    <i type="logical" name="LREAL"> F  </i>
    <v name="ROPT">      0.00000000</v>
    <i type="int" name="LMAXPAW">  -100</i>
    <i type="int" name="LMAXMIX">     2</i>
    <i type="logical" name="NLSPLINE"> F  </i>
   </separator>
   <separator name="electronic startup" >
    <i type="int" name="ISTART">     0</i>
    <i type="int" name="ICHARG">    11</i>
    <i type="int" name="INIWAV">     1</i>
   </separator>
   <separator name="electronic spin" >
    <i type="int" name="ISPIN">     1</i>
    <i type="logical" name="LNONCOLLINEAR"> F  </i>
    <v name="MAGMOM">      1.00000000      1.00000000</v>
    <i name="NUPDOWN">     -1.00000000</i>
    <i type="logical" name="LSORBIT"> F  </i>
    <v name="SAXIS">      0.00000000      0.00000000      1.00000000</v>
    <i type="logical" name="LSPIRAL"> F  </i>
    <v name="QSPIRAL">      0.00000000      0.00000000      0.00000000</v>
    <i type="logical" name="LZEROZ"> F  </i>
   </separator>
   <separator name="electronic exchange-correlation" >
    <i type="logical" name="LASPH"> F  </i>
    <i type="logical" name="LMETAGGA"> F  </i>
   </separator>
   <separator name="electronic convergence" >
    <i type="int" name="NELM">    60</i>
    <i type="int" name="NELMDL">     0</i>
    <i type="int" name="NELMIN">     2</i>
    <i name="ENINI">    550.00000000</i>
    <separator name="electronic convergence detail" >
     <i type="logical" name="LDIAG"> T  </i>
     <i type="logical" name="LSUBROT"> F  </i>
     <i name="WEIMIN">      0.00000000</i>
     <i name="EBREAK">      0.00000002</i>
     <i name="DEPER">      0.30000000</i>
     <i type="int" name="NRMM">     4</i>
     <i name="TIME">      0.40000000</i>
    </separator>
   </separator>
   <separator name="electronic mixer" >
    <i name="AMIX">      0.40000000</i>
    <i name="BMIX">      1.00000000</i>
    <i name="AMIN">      0.10000000</i>
    <i name="AMIX_MAG">      1.60000000</i>
    <i name="BMIX_MAG">      1.00000000</i>
    <separator name="electronic mixer details" >
     <i type="int" name="IMIX">     4</i>
     <i type="logical" name="MIXFIRST"> F  </i>
     <i type="int" name="MAXMIX">   -45</i>
     <i name="WC">    100.00000000</i>
     <i type="int" name="INIMIX">     1</i>
     <i type="int" name="MIXPRE">     1</i>
     <i type="int" name="MREMOVE">     5</i>
    </separator>
   </separator>
   <separator name="electronic dipolcorrection" >
    <i type="logical" name="LDIPOL"> F  </i>
    <i type="logical" name="LMONO"> F  </i>
    <i type="int" name="IDIPOL">     0</i>
    <i name="EPSILON">      1.00000000</i>
    <v name="DIPOL">   -100.00000000   -100.00000000   -100.00000000</v>
    <i name="EFIELD">      0.00000000</i>
   </separator>
  </separator>
  <separator name="grids" >
   <i type="int" name="NGX">    20</i>
   <i type="int" name="NGY">    20</i>
   <i type="int" name="NGZ">   160</i>
   <i type="int" name="NGXF">    40</i>
   <i type="int" name="NGYF">    40</i>
   <i type="int" name="NGZF">   320</i>
   <i type="logical" name="ADDGRID"> F  </i>
  </separator>
  <separator name="ionic" >
   <i type="int" name="NSW">     0</i>
   <i type="int" name="IBRION">    -1</i>
   <i type="int" name="MDALGO">     0</i>
   <i type="int" name="ISIF">     2</i>
   <i name="PSTRESS">      0.00000000</i>
   <i name="EDIFFG">     -0.01000000</i>
   <i type="int" name="NFREE">     0</i>
   <i name="POTIM">      0.50000000</i>
   <i name="SMASS">     -3.00000000</i>
   <i name="SCALEE">      1.00000000</i>
  </separator>
  <separator name="ionic md" >
   <i name="TEBEG">      0.00010000</i>
   <i name="TEEND">      0.00010000</i>
   <i type="int" name="NBLOCK">     1</i>
   <i type="int" name="KBLOCK">     1</i>
   <i type="int" name="NPACO">   256</i>
   <i name="APACO">     16.00000000</i>
  </separator>
  <separator name="symmetry" >
   <i type="int" name="ISYM">     2</i>
   <i name="SYMPREC">      0.00001000</i>
  </separator>
  <separator name="dos" >
   <i type="int" name="LORBIT">    11</i>
   <v name="RWIGS">     -1.00000000</v>
   <i type="int" name="NEDOS">  3000</i>
   <i name="EMIN">     10.00000000</i>
   <i name="EMAX">    -10.00000000</i>
   <i name="EFERMI">      0.00000000</i>
  </separator>
  <separator name="writing" >
   <i type="int" name="NWRITE">     2</i>
   <i type="logical" name="LWAVE"> F  </i>
   <i type="logical" name="LDOWNSAMPLE"> F  </i>
   <i type="logical" name="LCHARG"> F  </i>
   <i type="logical" name="LPARD"> F  </i>
   <i type="logical" name="LVTOT"> F  </i>
   <i type="logical" name="LVHAR"> F  </i>
   <i type="logical" name="LELF"> F  </i>
   <i type="logical" name="LOPTICS"> F  </i>
   <v name="STM">      0.00000000      0.00000000      0.00000000      0.00000000      0.00000000      0.00000000      0.00000000</v>
  </separator>
  <separator name="performance" >
   <i type="int" name="NPAR">    16</i>
   <i type="int" name="NSIM">     4</i>
   <i type="int" name="NBLK">    -1</i>
   <i type="logical" name="LPLANE"> T  </i>
   <i type="logical" name="LSCALAPACK"> T  </i>
   <i type="logical" name="LSCAAWARE"> F  </i>
   <i type="logical" name="LSCALU"> F  </i>
   <i type="logical" name="LASYNC"> F  </i>
   <i type="logical" name="LORBITALREAL"> F  </i>
  </separator>
  <separator name="miscellaneous" >
   <i type="int" name="IDIOT">     3</i>
   <i type="int" name="ISPECIAL">     0</i>
   <i type="logical" name="LMUSIC"> F  </i>
   <v name="POMASS">     12.01100000</v>
   <v name="DARWINR">      0.00000000</v>
   <v name="DARWINV">      1.00000000</v>
   <i type="logical" name="LCORR"> T  </i>
  </separator>
  <i type="logical" name="GGA_COMPAT"> T  </i>
  <i type="logical" name="LBERRY"> F  </i>
  <i type="int" name="ICORELEVEL">     0</i>
  <i type="logical" name="LDAU"> F  </i>
  <i type="int" name="I_CONSTRAINED_M">     0</i>
  <separator name="electronic exchange-correlation" >
   <i type="string" name="GGA">--</i>
   <i type="int" name="VOSKOWN">     0</i>
   <i type="logical" name="LHFCALC"> F  </i>
   <i type="string" name="PRECFOCK"></i>
   <i type="logical" name="LSYMGRAD"> F  </i>
   <i type="logical" name="LHFONE"> F  </i>
   <i type="logical" name="LRHFCALC"> F  </i>
   <i type="logical" name="LTHOMAS"> F  </i>
   <i type="logical" name="LMODELHF"> F  </i>
   <i name="ENCUT4O">     -1.00000000</i>
   <i type="int" name="EXXOEP">     0</i>
   <i type="int" name="FOURORBIT">     0</i>
   <i name="AEXX">      0.00000000</i>
   <i name="HFALPHA">      0.00000000</i>
   <i name="MCALPHA">      0.00000000</i>
   <i name="ALDAX">      1.00000000</i>
   <i name="AGGAX">      1.00000000</i>
   <i name="ALDAC">      1.00000000</i>
   <i name="AGGAC">      1.00000000</i>
   <i type="int" name="NKREDX">     1</i>
   <i type="int" name="NKREDY">     1</i>
   <i type="int" name="NKREDZ">     1</i>
   <i type="logical" name="SHIFTRED"> F  </i>
   <i type="logical" name="ODDONLY"> F  </i>
   <i type="logical" name="EVENONLY"> F  </i>
   <i type="int" name="LMAXFOCK">     0</i>
   <i type="int" name="NMAXFOCKAE">     0</i>
   <i type="logical" name="LFOCKAEDFT"> F  </i>
   <i name="HFSCREEN">      0.00000000</i>
   <i name="HFSCREENC">      0.00000000</i>
   <i type="int" name="NBANDSGWLOW">     0</i>
  </separator>
  <separator name="vdW DFT" >
   <i type="logical" name="LUSE_VDW"> F  </i>
   <i name="Zab_VDW">     -0.84910000</i>
   <i name="PARAM1">      0.12340000</i>
   <i name="PARAM2">      1.00000000</i>
   <i name="PARAM3">      0.00000000</i>
  </separator>
  <separator name="model GW" >
   <i type="int" name="MODEL_GW">     0</i>
   <i name="MODEL_EPS0">     31.54231800</i>
   <i name="MODEL_ALPHA">      1.00000000</i>
  </separator>
  <separator name="linear response parameters" >
   <i type="logical" name="LEPSILON"> F  </i>
   <i type="logical" name="LRPA"> F  </i>
   <i type="logical" name="LNABLA"> F  </i>
   <i type="logical" name="LVEL"> F  </i>
   <i type="int" name="KINTER">     0</i>
   <i name="CSHIFT">      0.10000000</i>
   <i name="OMEGAMAX">     -1.00000000</i>
   <i name="DEG_THRESHOLD">      0.00200000</i>
   <i name="RTIME">     -0.10000000</i>
   <i name="WPLASMAI">      0.00000000</i>
   <v name="DFIELD">      0.00000000      0.00000000      0.00000000</v>
   <v name="WPLASMA">      0.00000000      0.00000000      0.00000000      0.00000000      0.00000000      0.00000000      0.00000000      0.00000000      0.00000000</v>
  </separator>
  <separator name="orbital magnetization" >
   <i type="logical" name="NUCIND"> F  </i>
   <v name="MAGPOS">      0.00000000      0.00000000      0.00000000</v>
   <i type="logical" name="LNICSALL"> T  </i>
   <i type="logical" name="ORBITALMAG"> F  </i>
   <i type="logical" name="LMAGBLOCH"> F  </i>
   <i type="logical" name="LCHIMAG"> F  </i>
   <i type="logical" name="LGAUGE"> T  </i>
   <i type="int" name="MAGATOM">     0</i>
   <v name="MAGDIPOL">      0.00000000      0.00000000      0.00000000</v>
   <v name="AVECCONST">      0.00000000      0.00000000      0.00000000</v>
  </separator>
  <separator name="response functions" >
   <i type="logical" name="LADDER"> F  </i>
   <i type="logical" name="LRPAFORCE"> F  </i>
   <i type="logical" name="LFXC"> F  </i>
   <i type="logical" name="LHARTREE"> T  </i>
   <i type="int" name="IBSE">     0</i>
   <v type="int" name="KPOINT">    -1     0     0     0</v>
   <i type="logical" name="LTCTE"> F  </i>
   <i type="logical" name="LTETE"> F  </i>
   <i type="logical" name="LTRIPLET"> F  </i>
   <i type="logical" name="LFXCEPS"> F  </i>
   <i type="logical" name="LFXHEG"> F  </i>
   <i type="int" name="NATURALO">     2</i>
   <i type="logical" name="L2ORDER"> F  </i>
   <i type="logical" name="LMP2LT"> F  </i>
   <i type="logical" name="LUSEW"> F  </i>
   <i name="ENCUTGW">     -2.00000000</i>
   <i name="ENCUTGWSOFT">     -2.00000000</i>
   <i name="ENCUTLF">     -1.00000000</i>
   <i type="int" name="LMAXMP2">    -1</i>
   <i name="SCISSOR">      0.00000000</i>
   <i type="int" name="NOMEGA">     0</i>
   <i type="int" name="NOMEGAR">     0</i>
   <i type="int" name="NBANDSGW">    -1</i>
   <i type="int" name="NBANDSO">    -1</i>
   <i type="int" name="NBANDSV">    -1</i>
   <i type="int" name="NELM">     1</i>
   <i type="int" name="NELMHF">     1</i>
   <i type="int" name="DIM">     3</i>
   <i type="int" name="ANTIRES">     0</i>
   <i name="OMEGAMAX">    -30.00000000</i>
   <i name="OMEGAMIN">    -30.00000000</i>
   <i name="OMEGATL">   -200.00000000</i>
   <i type="int" name="OMEGAGRID">   140</i>
   <i name="CSHIFT">     -0.10000000</i>
   <i type="logical" name="SELFENERGY"> F  </i>
   <i type="logical" name="LSPECTRAL"> F  </i>
   <i type="logical" name="LSPECTRALGW"> F  </i>
   <i type="logical" name="LSINGLES"> F  </i>
   <i type="logical" name="LFERMIGW"> F  </i>
   <i type="logical" name="ODDONLYGW"> F  </i>
   <i type="logical" name="EVENONLYGW"> F  </i>
   <i type="int" name="NKREDLFX">     1</i>
   <i type="int" name="NKREDLFY">     1</i>
   <i type="int" name="NKREDLFZ">     1</i>
   <i type="int" name="MAXMEM">  2800</i>
   <i type="int" name="TELESCOPE">     0</i>
   <i type="int" name="TAUPAR">     1</i>
   <i type="int" name="OMEGAPAR">    -1</i>
   <i name="LAMBDA">      1.00000000</i>
  </separator>
  <separator name="External order field" >
   <i name="OFIELD_KAPPA">      0.00000000</i>
   <v name="OFIELD_K">      0.00000000      0.00000000      0.00000000</v>
   <i name="OFIELD_Q6_NEAR">      0.00000000</i>
   <i name="OFIELD_Q6_FAR">      0.00000000</i>
   <i name="OFIELD_A">      0.00000000</i>
  </separator>
 </parameters>
 <atominfo>
  <atoms>       2 </atoms>
  <types>       1 </types>
  <array name="atoms" >
   <dimension dim="1">ion</dimension>
   <field type="string">element</field>
   <field type="int">atomtype</field>
   <set>
    <rc><c>C </c><c>   1</c></rc>
    <rc><c>C </c><c>   1</c></rc>
   </set>
  </array>
  <array name="atomtypes" >
   <dimension dim="1">type</dimension>
   <field type="int">atomspertype</field>
   <field type="string">element</field>
   <field>mass</field>
   <field>valence</field>
   <field type="string">pseudopotential</field>
   <set>
    <rc><c>   2</c><c>C </c><c>     12.01100000</c><c>      4.00000000</c><c>  PAW_PBE C 08Apr2002                   </c></rc>
   </set>
  </array>
 </atominfo>
 <structure name="initialpos" >
  <crystal>
   <varray name="basis" >
    <v>       2.46810000       0.00000000       0.00000000 </v>
    <v>      -1.23000000       2.13000000       0.00000000 </v>
    <v>       0.00000000       0.00000000      20.00000000 </v>
   </varray>
   <i name="volume">    105.14106000 </i>
   <varray name="rec_basis" >
    <v>       0.40516997       0.23397139       0.00000000 </v>
    <v>       0.00000000       0.46948357       0.00000000 </v>
    <v>       0.00000000       0.00000000       0.05000000 </v>
   </varray>
  </crystal>
  <varray name="positions" >
   <v>       0.33338056       0.66671353       0.50000000 </v>
   <v>       0.66661944       0.33328647       0.50000000 </v>
  </varray>
 </structure>
 <calculation>
  <scstep>
   <time name="dav">    0.86    0.86</time>
   <time name="total">    0.88    0.88</time>
   <energy>
    <i name="alphaZ">      3.12520022 </i>
    <i name="ewald">   1297.56265207 </i>
    <i name="hartreedc">  -1544.54214840 </i>
    <i name="XCdc">     27.55985436 </i>
    <i name="pawpsdc">    835.55467392 </i>
    <i name="pawaedc">   -836.92263488 </i>
    <i name="eentropy">     -0.00000665 </i>
    <i name="bandstr">    -46.94273948 </i>
    <i name="atom">    294.29880157 </i>
    <i name="e_fr_energy">     29.69365272 </i>
    <i name="e_wo_entrp">     29.69365937 </i>
    <i name="e_0_energy">     29.69365605 </i>
   </energy>
  </scstep>
  <scstep>
   <time name="dav">    1.26    1.26</time>
   <time name="total">    1.26    1.26</time>
   <energy>
    <i name="e_fr_energy">    -16.11279519 </i>
    <i name="e_wo_entrp">    -16.11279519 </i>
    <i name="e_0_energy">    -16.11279519 </i>
   </energy>
  </scstep>
  <scstep>
   <time name="dav">    1.10    1.10</time>
   <time name="total">    1.10    1.10</time>
   <energy>
    <i name="e_fr_energy">    -17.35755422 </i>
    <i name="e_wo_entrp">    -17.35755422 </i>
    <i name="e_0_energy">    -17.35755422 </i>
   </energy>
  </scstep>
  <scstep>
   <time name="dav">    1.29    1.29</time>
   <time name="total">    1.29    1.29</time>
   <energy>
    <i name="e_fr_energy">    -17.36185914 </i>
    <i name="e_wo_entrp">    -17.36185914 </i>
    <i name="e_0_energy">    -17.36185914 </i>
   </energy>
  </scstep>
  <scstep>
   <time name="dav">    1.11    1.11</time>
   <time name="total">    1.11    1.11</time>
   <energy>
    <i name="e_fr_energy">    -17.36186649 </i>
    <i name="e_wo_entrp">    -17.36186649 </i>
    <i name="e_0_energy">    -17.36186649 </i>
   </energy>
  </scstep>
  <scstep>
   <time name="dav">    1.31    1.31</time>
   <time name="total">    1.31    1.31</time>
   <energy>
    <i name="alphaZ">      3.12520022 </i>
    <i name="ewald">   1297.56265207 </i>
    <i name="hartreedc">  -1544.54214840 </i>
    <i name="XCdc">     27.55985436 </i>
    <i name="pawpsdc">    835.55467392 </i>
    <i name="pawaedc">   -836.92263488 </i>
    <i name="eentropy">     -0.00000000 </i>
    <i name="bandstr">    -93.99826540 </i>
    <i name="atom">    294.29880157 </i>
    <i name="e_fr_energy">    -17.36186655 </i>
    <i name="e_wo_entrp">    -17.36186655 </i>
    <i name="e_0_energy">    -17.36186655 </i>
   </energy>
  </scstep>
  <structure>
   <crystal>
    <varray name="basis" >
     <v>       2.46810000       0.00000000       0.00000000 </v>
     <v>      -1.23000000       2.13000000       0.00000000 </v>
     <v>       0.00000000       0.00000000      20.00000000 </v>
    </varray>
    <i name="volume">    105.14106000 </i>
    <varray name="rec_basis" >
     <v>       0.40516997       0.23397139       0.00000000 </v>
     <v>       0.00000000       0.46948357       0.00000000 </v>
     <v>       0.00000000       0.00000000       0.05000000 </v>
    </varray>
   </crystal>
   <varray name="positions" >
    <v>       0.33338056       0.66671353       0.50000000 </v>
    <v>       0.66661944       0.33328647       0.50000000 </v>
   </varray>
  </structure>
  <varray name="forces" >
   <v>       8.27404313       3.42335778       0.00000000 </v>
   <v>      -8.27404313      -3.42335778      -0.00000000 </v>
  </varray>
  <varray name="stress" >
   <v>      64.69912541     128.43731732       0.00000000 </v>
   <v>     128.43731733     -11.02362315       0.00000000 </v>
   <v>       0.00000000       0.00000000      13.55774545 </v>
  </varray>
  <energy>
   <i name="e_fr_energy">    -17.36186655 </i>
   <i name="e_wo_entrp">    -17.36186655 </i>
   <i name="e_0_energy">     -0.00000000 </i>
  </energy>
  <time name="totalsc">    7.74    7.74</time>
  <eigenvalues>
   <array>
    <dimension dim="1">band</dimension>
    <dimension dim="2">kpoint</dimension>
    <dimension dim="3">spin</dimension>
    <field>eigene</field>
    <field>occ</field>
    <set>
     <set comment="spin 1">
      <set comment="kpoint 1">
       <r>  -22.2745    1.0000 </r>
       <r>  -10.3732    1.0000 </r>
       <r>   -5.7740    1.0000 </r>
       <r>   -5.7612    1.0000 </r>
       <r>    0.5212    0.0000 </r>
       <r>    1.3202    0.0000 </r>
       <r>    1.6827    0.0000 </r>
       <r>    2.5931    0.0000 </r>
       <r>    3.0519    0.0000 </r>
       <r>    4.7230    0.0000 </r>
       <r>    5.3345    0.0000 </r>
       <r>    5.5485    0.0000 </r>
       <r>    5.6459    0.0000 </r>
       <r>    7.6687    0.0000 </r>
       <r>    8.4683    0.0000 </r>
       <r>    8.7069    0.0000 </r>
      </set>
      <set comment="kpoint 2">
       <r>  -22.2706    1.0000 </r>
       <r>  -10.3686    1.0000 </r>
       <r>   -5.7901    1.0000 </r>
       <r>   -5.7700    1.0000 </r>
       <r>    0.5264    0.0000 </r>
       <r>    1.3255    0.0000 </r>
       <r>    1.6881    0.0000 </r>
       <r>    2.5985    0.0000 </r>
       <r>    3.0572    0.0000 </r>
       <r>    4.7283    0.0000 </r>
       <r>    5.3392    0.0000 </r>
       <r>    5.5531    0.0000 </r>
       <r>    5.6620    0.0000 </r>
       <r>    7.6739    0.0000 </r>
       <r>    8.4737    0.0000 </r>
       <r>    8.6931    0.0000 </r>
      </set>
      <set comment="kpoint 3">
       <r>  -22.2590    1.0000 </r>
       <r>  -10.3547    1.0000 </r>
       <r>   -5.8386    1.0000 </r>
       <r>   -5.7957    1.0000 </r>
       <r>    0.5422    0.0000 </r>
       <r>    1.3415    0.0000 </r>
       <r>    1.7043    0.0000 </r>
       <r>    2.6145    0.0000 </r>
       <r>    3.0732    0.0000 </r>
       <r>    4.7442    0.0000 </r>
       <r>    5.3532    0.0000 </r>
       <r>    5.5658    0.0000 </r>
       <r>    5.7112    0.0000 </r>
       <r>    7.6895    0.0000 </r>
       <r>    8.4898    0.0000 </r>
       <r>    8.6519    0.0000 </r>
      </set>
      <set comment="kpoint 4">
       <r>  -22.2396    1.0000 </r>
       <r>  -10.3315    1.0000 </r>
       <r>   -5.9191    1.0000 </r>
       <r>   -5.8374    1.0000 </r>
       <r>    0.5685    0.0000 </r>
       <r>    1.3681    0.0000 </r>
       <r>    1.7312    0.0000 </r>
       <r>    2.6413    0.0000 </r>
       <r>    3.0998    0.0000 </r>
       <r>    4.7707    0.0000 </r>
       <r>    5.3765    0.0000 </r>
       <r>    5.5848    0.0000 </r>
       <r>    5.7937    0.0000 </r>
       <r>    7.7155    0.0000 </r>
       <r>    8.5166    0.0000 </r>
       <r>    8.5836    0.0000 </r>
      </set>
      <set comment="kpoint 5">
       <r>  -22.2124    1.0000 </r>
       <r>  -10.2991    1.0000 </r>
       <r>   -6.0301    1.0000 </r>
       <r>   -5.8946    1.0000 </r>
       <r>    0.6053    0.0000 </r>
       <r>    1.4055    0.0000 </r>
       <r>    1.7690    0.0000 </r>
       <r>    2.6787    0.0000 </r>
       <r>    3.1371    0.0000 </r>
       <r>    4.8077    0.0000 </r>
       <r>    5.4086    0.0000 </r>
       <r>    5.6088    0.0000 </r>
       <r>    5.9090    0.0000 </r>
       <r>    7.7519    0.0000 </r>
       <r>    8.4889    0.0000 </r>
       <r>    8.5541    0.0000 </r>
      </set>
      <set comment="kpoint 6">
       <r>  -22.1775    1.0000 </r>
       <r>  -10.2575    1.0000 </r>
       <r>   -6.1701    1.0000 </r>
       <r>   -5.9661    1.0000 </r>
       <r>    0.6527    0.0000 </r>
       <r>    1.4534    0.0000 </r>
       <r>    1.8176    0.0000 </r>
       <r>    2.7268    0.0000 </r>
       <r>    3.1851    0.0000 </r>
       <r>    4.8554    0.0000 </r>
       <r>    5.4487    0.0000 </r>
       <r>    5.6369    0.0000 </r>
       <r>    6.0558    0.0000 </r>
       <r>    7.7986    0.0000 </r>
       <r>    8.3687    0.0000 </r>
       <r>    8.6023    0.0000 </r>
      </set>
      <set comment="kpoint 7">
       <r>  -22.1349    1.0000 </r>
       <r>  -10.2067    1.0000 </r>
       <r>   -6.3370    1.0000 </r>
       <r>   -6.0506    1.0000 </r>
       <r>    0.7105    0.0000 </r>
       <r>    1.5120    0.0000 </r>
       <r>    1.8769    0.0000 </r>
       <r>    2.7856    0.0000 </r>
       <r>    3.2438    0.0000 </r>
       <r>    4.9135    0.0000 </r>
       <r>    5.4950    0.0000 </r>
       <r>    5.6692    0.0000 </r>
       <r>    6.2325    0.0000 </r>
       <r>    7.8555    0.0000 </r>
       <r>    8.2240    0.0000 </r>
       <r>    8.6611    0.0000 </r>
      </set>
      <set comment="kpoint 8">
       <r>  -22.0846    1.0000 </r>
       <r>  -10.1467    1.0000 </r>
       <r>   -6.5287    1.0000 </r>
       <r>   -6.1467    1.0000 </r>
       <r>    0.7789    0.0000 </r>
       <r>    1.5813    0.0000 </r>
       <r>    1.9470    0.0000 </r>
       <r>    2.8551    0.0000 </r>
       <r>    3.3131    0.0000 </r>
       <r>    4.9823    0.0000 </r>
       <r>    5.5434    0.0000 </r>
       <r>    5.7077    0.0000 </r>
       <r>    6.4374    0.0000 </r>
       <r>    7.9215    0.0000 </r>
       <r>    8.0571    0.0000 </r>
       <r>    8.7305    0.0000 </r>
      </set>
      <set comment="kpoint 9">
       <r>  -22.0265    1.0000 </r>
       <r>  -10.0775    1.0000 </r>
       <r>   -6.7431    1.0000 </r>
       <r>   -6.2529    1.0000 </r>
       <r>    0.8578    0.0000 </r>
       <r>    1.6612    0.0000 </r>
       <r>    2.0280    0.0000 </r>
       <r>    2.9352    0.0000 </r>
       <r>    3.3930    0.0000 </r>
       <r>    5.0615    0.0000 </r>
       <r>    5.5870    0.0000 </r>
       <r>    5.7577    0.0000 </r>
       <r>    6.6689    0.0000 </r>
       <r>    7.8613    0.0000 </r>
       <r>    8.0044    0.0000 </r>
       <r>    8.8104    0.0000 </r>
      </set>
      <set comment="kpoint 10">
       <r>  -21.9607    1.0000 </r>
       <r>   -9.9993    1.0000 </r>
       <r>   -6.9779    1.0000 </r>
       <r>   -6.3677    1.0000 </r>
       <r>    0.9473    0.0000 </r>
       <r>    1.7517    0.0000 </r>
       <r>    2.1197    0.0000 </r>
       <r>    3.0260    0.0000 </r>
       <r>    3.4836    0.0000 </r>
       <r>    5.1512    0.0000 </r>
       <r>    5.6185    0.0000 </r>
       <r>    5.8250    0.0000 </r>
       <r>    6.9252    0.0000 </r>
       <r>    7.6515    0.0000 </r>
       <r>    8.0911    0.0000 </r>
       <r>    8.9007    0.0000 </r>
      </set>
      <set comment="kpoint 11">
       <r>  -21.8873    1.0000 </r>
       <r>   -9.9121    1.0000 </r>
       <r>   -7.2308    1.0000 </r>
       <r>   -6.4895    1.0000 </r>
       <r>    1.0473    0.0000 </r>
       <r>    1.8528    0.0000 </r>
       <r>    2.2222    0.0000 </r>
       <r>    3.1275    0.0000 </r>
       <r>    3.5849    0.0000 </r>
       <r>    5.2514    0.0000 </r>
       <r>    5.6359    0.0000 </r>
       <r>    5.9108    0.0000 </r>
       <r>    7.2046    0.0000 </r>
       <r>    7.4210    0.0000 </r>
       <r>    8.1893    0.0000 </r>
       <r>    9.0015    0.0000 </r>
      </set>
      <set comment="kpoint 12">
       <r>  -21.8062    1.0000 </r>
       <r>   -9.8159    1.0000 </r>
       <r>   -7.4998    1.0000 </r>
       <r>   -6.6169    1.0000 </r>
       <r>    1.1577    0.0000 </r>
       <r>    1.9645    0.0000 </r>
       <r>    2.3355    0.0000 </r>
       <r>    3.2395    0.0000 </r>
       <r>    3.6968    0.0000 </r>
       <r>    5.3619    0.0000 </r>
       <r>    5.6410    0.0000 </r>
       <r>    6.0125    0.0000 </r>
       <r>    7.1724    0.0000 </r>
       <r>    7.5054    0.0000 </r>
       <r>    8.2980    0.0000 </r>
       <r>    9.1127    0.0000 </r>
      </set>
      <set comment="kpoint 13">
       <r>  -21.7175    1.0000 </r>
       <r>   -9.7108    1.0000 </r>
       <r>   -7.7828    1.0000 </r>
       <r>   -6.7486    1.0000 </r>
       <r>    1.2787    0.0000 </r>
       <r>    2.0867    0.0000 </r>
       <r>    2.4596    0.0000 </r>
       <r>    3.3622    0.0000 </r>
       <r>    3.8193    0.0000 </r>
       <r>    5.4824    0.0000 </r>
       <r>    5.6359    0.0000 </r>
       <r>    6.1281    0.0000 </r>
       <r>    6.9078    0.0000 </r>
       <r>    7.8259    0.0000 </r>
       <r>    8.4170    0.0000 </r>
       <r>    9.2343    0.0000 </r>
      </set>
      <set comment="kpoint 14">
       <r>  -21.6211    1.0000 </r>
       <r>   -9.5968    1.0000 </r>
       <r>   -8.0780    1.0000 </r>
       <r>   -6.8831    1.0000 </r>
       <r>    1.4102    0.0000 </r>
       <r>    2.2195    0.0000 </r>
       <r>    2.5945    0.0000 </r>
       <r>    3.4954    0.0000 </r>
       <r>    3.9524    0.0000 </r>
       <r>    5.6125    0.0000 </r>
       <r>    5.6221    0.0000 </r>
       <r>    6.2562    0.0000 </r>
       <r>    6.6291    0.0000 </r>
       <r>    8.1645    0.0000 </r>
       <r>    8.5462    0.0000 </r>
       <r>    9.3662    0.0000 </r>
      </set>
      <set comment="kpoint 15">
       <r>  -21.5171    1.0000 </r>
       <r>   -9.4742    1.0000 </r>
       <r>   -8.3835    1.0000 </r>
       <r>   -7.0194    1.0000 </r>
       <r>    1.5522    0.0000 </r>
       <r>    2.3627    0.0000 </r>
       <r>    2.7401    0.0000 </r>
       <r>    3.6391    0.0000 </r>
       <r>    4.0960    0.0000 </r>
       <r>    5.6008    0.0000 </r>
       <r>    5.7498    0.0000 </r>
       <r>    6.3402    0.0000 </r>
       <r>    6.3960    0.0000 </r>
       <r>    8.5196    0.0000 </r>
       <r>    8.6856    0.0000 </r>
       <r>    9.5084    0.0000 </r>
      </set>
      <set comment="kpoint 16">
       <r>  -21.4056    1.0000 </r>
       <r>   -9.3429    1.0000 </r>
       <r>   -8.6977    1.0000 </r>
       <r>   -7.1564    1.0000 </r>
       <r>    1.7046    0.0000 </r>
       <r>    2.5162    0.0000 </r>
       <r>    2.8966    0.0000 </r>
       <r>    3.7931    0.0000 </r>
       <r>    4.2501    0.0000 </r>
       <r>    5.5733    0.0000 </r>
       <r>    5.8677    0.0000 </r>
       <r>    6.0691    0.0000 </r>
       <r>    6.5472    0.0000 </r>
       <r>    8.8350    0.0000 </r>
       <r>    8.8897    0.0000 </r>
       <r>    9.6610    0.0000 </r>
      </set>
      <set comment="kpoint 17">
       <r>  -21.2866    1.0000 </r>
       <r>   -9.2032    1.0000 </r>
       <r>   -9.0192    1.0000 </r>
       <r>   -7.2931    1.0000 </r>
       <r>    1.8675    0.0000 </r>
       <r>    2.6800    0.0000 </r>
       <r>    3.0638    0.0000 </r>
       <r>    3.9572    0.0000 </r>
       <r>    4.4144    0.0000 </r>
       <r>    5.5406    0.0000 </r>
       <r>    5.6862    0.0000 </r>
       <r>    6.0980    0.0000 </r>
       <r>    6.7095    0.0000 </r>
       <r>    8.9944    0.0000 </r>
       <r>    9.2733    0.0000 </r>
       <r>    9.8239    0.0000 </r>
      </set>
      <set comment="kpoint 18">
       <r>  -21.1602    1.0000 </r>
       <r>   -9.3467    1.0000 </r>
       <r>   -9.0551    1.0000 </r>
       <r>   -7.4285    1.0000 </r>
       <r>    2.0408    0.0000 </r>
       <r>    2.8538    0.0000 </r>
       <r>    3.2418    0.0000 </r>
       <r>    4.1304    0.0000 </r>
       <r>    4.5886    0.0000 </r>
       <r>    5.3727    0.0000 </r>
       <r>    5.5042    0.0000 </r>
       <r>    6.2616    0.0000 </r>
       <r>    6.8827    0.0000 </r>
       <r>    9.1636    0.0000 </r>
       <r>    9.6691    0.0000 </r>
       <r>    9.9971    0.0000 </r>
      </set>
      <set comment="kpoint 19">
       <r>  -21.0262    1.0000 </r>
       <r>   -9.6788    1.0000 </r>
       <r>   -8.8988    1.0000 </r>
       <r>   -7.5619    1.0000 </r>
       <r>    2.2245    0.0000 </r>
       <r>    3.0370    0.0000 </r>
       <r>    3.4306    0.0000 </r>
       <r>    4.3100    0.0000 </r>
       <r>    4.7720    0.0000 </r>
       <r>    5.0490    0.0000 </r>
       <r>    5.4657    0.0000 </r>
       <r>    6.4430    0.0000 </r>
       <r>    7.0667    0.0000 </r>
       <r>    9.3427    0.0000 </r>
       <r>   10.0756    0.0000 </r>
       <r>   10.1806    0.0000 </r>
      </set>
      <set comment="kpoint 20">
       <r>  -20.8849    1.0000 </r>
       <r>  -10.0145    1.0000 </r>
       <r>   -8.7346    1.0000 </r>
       <r>   -7.6926    1.0000 </r>
       <r>    2.4185    0.0000 </r>
       <r>    3.2283    0.0000 </r>
       <r>    3.6301    0.0000 </r>
       <r>    4.4684    0.0000 </r>
       <r>    4.7509    0.0000 </r>
       <r>    4.9620    0.0000 </r>
       <r>    5.4286    0.0000 </r>
       <r>    6.6363    0.0000 </r>
       <r>    7.2614    0.0000 </r>
       <r>    9.5313    0.0000 </r>
       <r>   10.3744    0.0000 </r>
       <r>   10.4912    0.0000 </r>
      </set>
      <set comment="kpoint 21">
       <r>  -20.7363    1.0000 </r>
       <r>  -10.3528    1.0000 </r>
       <r>   -8.5626    1.0000 </r>
       <r>   -7.8199    1.0000 </r>
       <r>    2.6229    0.0000 </r>
       <r>    3.4232    0.0000 </r>
       <r>    3.8404    0.0000 </r>
       <r>    4.3260    0.0000 </r>
       <r>    4.7647    0.0000 </r>
       <r>    5.1463    0.0000 </r>
       <r>    5.4061    0.0000 </r>
       <r>    6.8405    0.0000 </r>
       <r>    7.4668    0.0000 </r>
       <r>    9.7295    0.0000 </r>
       <r>   10.5784    0.0000 </r>
       <r>   10.9146    0.0000 </r>
      </set>
      <set comment="kpoint 22">
       <r>  -20.5804    1.0000 </r>
       <r>  -10.6926    1.0000 </r>
       <r>   -8.3831    1.0000 </r>
       <r>   -7.9434    1.0000 </r>
       <r>    2.8376    0.0000 </r>
       <r>    3.5941    0.0000 </r>
       <r>    4.0370    0.0000 </r>
       <r>    4.0613    0.0000 </r>
       <r>    4.9656    0.0000 </r>
       <r>    5.2509    0.0000 </r>
       <r>    5.4729    0.0000 </r>
       <r>    7.0552    0.0000 </r>
       <r>    7.6829    0.0000 </r>
       <r>    9.9368    0.0000 </r>
       <r>   10.7926    0.0000 </r>
       <r>   11.3442    0.0000 </r>
      </set>
      <set comment="kpoint 23">
       <r>  -20.4172    1.0000 </r>
       <r>  -11.0333    1.0000 </r>
       <r>   -8.1964    1.0000 </r>
       <r>   -8.0623    1.0000 </r>
       <r>    3.0625    0.0000 </r>
       <r>    3.5275    0.0000 </r>
       <r>    3.9800    0.0000 </r>
       <r>    4.2929    0.0000 </r>
       <r>    5.1898    0.0000 </r>
       <r>    5.2402    0.0000 </r>
       <r>    5.6656    0.0000 </r>
       <r>    7.2803    0.0000 </r>
       <r>    7.9095    0.0000 </r>
       <r>   10.1532    0.0000 </r>
       <r>   11.0170    0.0000 </r>
       <r>   11.7782    0.0000 </r>
      </set>
      <set comment="kpoint 24">
       <r>  -20.2470    1.0000 </r>
       <r>  -11.3740    1.0000 </r>
       <r>   -8.1764    1.0000 </r>
       <r>   -8.0030    1.0000 </r>
       <r>    3.2170    0.0000 </r>
       <r>    3.2974    0.0000 </r>
       <r>    4.1726    0.0000 </r>
       <r>    4.5349    0.0000 </r>
       <r>    5.2034    0.0000 </r>
       <r>    5.4272    0.0000 </r>
       <r>    5.8957    0.0000 </r>
       <r>    7.5156    0.0000 </r>
       <r>    8.1466    0.0000 </r>
       <r>   10.3781    0.0000 </r>
       <r>   11.2515    0.0000 </r>
       <r>   12.2149    0.0000 </r>
      </set>
      <set comment="kpoint 25">
       <r>  -20.0697    1.0000 </r>
       <r>  -11.7140    1.0000 </r>
       <r>   -8.2852    1.0000 </r>
       <r>   -7.8031    1.0000 </r>
       <r>    2.8711    0.0000 </r>
       <r>    3.5422    0.0000 </r>
       <r>    4.4095    0.0000 </r>
       <r>    4.7862    0.0000 </r>
       <r>    5.1635    0.0000 </r>
       <r>    5.6762    0.0000 </r>
       <r>    6.1421    0.0000 </r>
       <r>    7.7610    0.0000 </r>
       <r>    8.3941    0.0000 </r>
       <r>   10.6111    0.0000 </r>
       <r>   11.4959    0.0000 </r>
       <r>   12.6513    0.0000 </r>
      </set>
      <set comment="kpoint 26">
       <r>  -19.8854    1.0000 </r>
       <r>  -12.0526    1.0000 </r>
       <r>   -8.3884    1.0000 </r>
       <r>   -7.5975    1.0000 </r>
       <r>    2.5187    0.0000 </r>
       <r>    3.7965    0.0000 </r>
       <r>    4.6635    0.0000 </r>
       <r>    5.0331    0.0000 </r>
       <r>    5.1387    0.0000 </r>
       <r>    5.9360    0.0000 </r>
       <r>    6.4011    0.0000 </r>
       <r>    8.0163    0.0000 </r>
       <r>    8.6521    0.0000 </r>
       <r>   10.8517    0.0000 </r>
       <r>   11.7501    0.0000 </r>
       <r>   13.0589    0.0000 </r>
      </set>
      <set comment="kpoint 27">
       <r>  -19.6944    1.0000 </r>
       <r>  -12.3893    1.0000 </r>
       <r>   -8.4856    1.0000 </r>
       <r>   -7.3866    1.0000 </r>
       <r>    2.1659    0.0000 </r>
       <r>    4.0597    0.0000 </r>
       <r>    4.9302    0.0000 </r>
       <r>    5.0690    0.0000 </r>
       <r>    5.3379    0.0000 </r>
       <r>    6.2066    0.0000 </r>
       <r>    6.6715    0.0000 </r>
       <r>    8.2813    0.0000 </r>
       <r>    8.9205    0.0000 </r>
       <r>   11.0986    0.0000 </r>
       <r>   12.0138    0.0000 </r>
       <r>   13.0453    0.0000 </r>
      </set>
      <set comment="kpoint 28">
       <r>  -19.4967    1.0000 </r>
       <r>  -12.7235    1.0000 </r>
       <r>   -8.5765    1.0000 </r>
       <r>   -7.1714    1.0000 </r>
       <r>    1.8155    0.0000 </r>
       <r>    4.3297    0.0000 </r>
       <r>    5.0376    0.0000 </r>
       <r>    5.2083    0.0000 </r>
       <r>    5.6198    0.0000 </r>
       <r>    6.4876    0.0000 </r>
       <r>    6.9529    0.0000 </r>
       <r>    8.5560    0.0000 </r>
       <r>    9.1991    0.0000 </r>
       <r>   11.3503    0.0000 </r>
       <r>   12.2857    0.0000 </r>
       <r>   12.9109    0.0000 </r>
      </set>
      <set comment="kpoint 29">
       <r>  -19.2926    1.0000 </r>
       <r>  -13.0544    1.0000 </r>
       <r>   -8.6610    1.0000 </r>
       <r>   -6.9529    1.0000 </r>
       <r>    1.4697    0.0000 </r>
       <r>    4.5987    0.0000 </r>
       <r>    5.0167    0.0000 </r>
       <r>    5.4971    0.0000 </r>
       <r>    5.9153    0.0000 </r>
       <r>    6.7792    0.0000 </r>
       <r>    7.2451    0.0000 </r>
       <r>    8.8400    0.0000 </r>
       <r>    9.4879    0.0000 </r>
       <r>   11.6039    0.0000 </r>
       <r>   12.5484    0.0000 </r>
       <r>   12.7122    0.0000 </r>
      </set>
      <set comment="kpoint 30">
       <r>  -19.0821    1.0000 </r>
       <r>  -13.3816    1.0000 </r>
       <r>   -8.7388    1.0000 </r>
       <r>   -6.7323    1.0000 </r>
       <r>    1.1308    0.0000 </r>
       <r>    4.8146    0.0000 </r>
       <r>    5.0609    0.0000 </r>
       <r>    5.7964    0.0000 </r>
       <r>    6.2222    0.0000 </r>
       <r>    7.0810    0.0000 </r>
       <r>    7.5480    0.0000 </r>
       <r>    9.1331    0.0000 </r>
       <r>    9.7868    0.0000 </r>
       <r>   11.8530    0.0000 </r>
       <r>   12.3890    0.0000 </r>
       <r>   12.8764    0.0000 </r>
      </set>
      <set comment="kpoint 31">
       <r>  -18.8658    1.0000 </r>
       <r>  -13.7045    1.0000 </r>
       <r>   -8.8097    1.0000 </r>
       <r>   -6.5113    1.0000 </r>
       <r>    0.8010    0.0000 </r>
       <r>    4.8650    0.0000 </r>
       <r>    5.2830    0.0000 </r>
       <r>    6.1060    0.0000 </r>
       <r>    6.5400    0.0000 </r>
       <r>    7.3931    0.0000 </r>
       <r>    7.8615    0.0000 </r>
       <r>    9.4347    0.0000 </r>
       <r>   10.0957    0.0000 </r>
       <r>   12.0544    0.0000 </r>
       <r>   12.0799    0.0000 </r>
       <r>   13.1772    0.0000 </r>
      </set>
      <set comment="kpoint 32">
       <r>  -18.6439    1.0000 </r>
       <r>  -14.0224    1.0000 </r>
       <r>   -8.8736    1.0000 </r>
       <r>   -6.2919    1.0000 </r>
       <r>    0.4829    0.0000 </r>
       <r>    4.8521    0.0000 </r>
       <r>    5.5812    0.0000 </r>
       <r>    6.4255    0.0000 </r>
       <r>    6.8687    0.0000 </r>
       <r>    7.7153    0.0000 </r>
       <r>    8.1854    0.0000 </r>
       <r>    9.7440    0.0000 </r>
       <r>   10.4143    0.0000 </r>
       <r>   11.6831    0.0000 </r>
       <r>   12.2162    0.0000 </r>
       <r>   12.9388    0.0000 </r>
      </set>
      <set comment="kpoint 33">
       <r>  -18.4172    1.0000 </r>
       <r>  -14.3343    1.0000 </r>
       <r>   -8.9302    1.0000 </r>
       <r>   -6.0770    1.0000 </r>
       <r>    0.1799    0.0000 </r>
       <r>    4.8308    0.0000 </r>
       <r>    5.9007    0.0000 </r>
       <r>    6.7549    0.0000 </r>
       <r>    7.2082    0.0000 </r>
       <r>    8.0474    0.0000 </r>
       <r>    8.5196    0.0000 </r>
       <r>   10.0597    0.0000 </r>
       <r>   10.7413    0.0000 </r>
       <r>   11.2913    0.0000 </r>
       <r>   12.0957    0.0000 </r>
       <r>   12.9016    0.0000 </r>
      </set>
      <set comment="kpoint 34">
       <r>  -18.1865    1.0000 </r>
       <r>  -14.6391    1.0000 </r>
       <r>   -8.9796    1.0000 </r>
       <r>   -5.8702    1.0000 </r>
       <r>   -0.1041    0.0000 </r>
       <r>    4.8095    0.0000 </r>
       <r>    6.2332    0.0000 </r>
       <r>    7.0938    0.0000 </r>
       <r>    7.5585    0.0000 </r>
       <r>    8.3893    0.0000 </r>
       <r>    8.8642    0.0000 </r>
       <r>   10.3781    0.0000 </r>
       <r>   10.8739    0.0000 </r>
       <r>   11.0913    0.0000 </r>
       <r>   11.7754    0.0000 </r>
       <r>   12.5887    0.0000 </r>
      </set>
      <set comment="kpoint 35">
       <r>  -17.9535    1.0000 </r>
       <r>  -14.9352    1.0000 </r>
       <r>   -9.0215    1.0000 </r>
       <r>   -5.6760    1.0000 </r>
       <r>   -0.3641    0.0000 </r>
       <r>    4.7902    0.0000 </r>
       <r>    6.5766    0.0000 </r>
       <r>    7.4420    0.0000 </r>
       <r>    7.9195    0.0000 </r>
       <r>    8.7406    0.0000 </r>
       <r>    9.2187    0.0000 </r>
       <r>   10.4693    0.0000 </r>
       <r>   10.6843    0.0000 </r>
       <r>   11.4144    0.0000 </r>
       <r>   11.4324    0.0000 </r>
       <r>   12.1131    0.0000 </r>
      </set>
      <set comment="kpoint 36">
       <r>  -17.7210    1.0000 </r>
       <r>  -15.2195    1.0000 </r>
       <r>   -9.0559    1.0000 </r>
       <r>   -5.5004    1.0000 </r>
       <r>   -0.5939    0.0000 </r>
       <r>    4.7739    0.0000 </r>
       <r>    6.9298    0.0000 </r>
       <r>    7.7991    0.0000 </r>
       <r>    8.2911    0.0000 </r>
       <r>    9.1006    0.0000 </r>
       <r>    9.5820    0.0000 </r>
       <r>   10.0591    0.0000 </r>
       <r>   10.8194    0.0000 </r>
       <r>   11.2105    0.0000 </r>
       <r>   11.6463    0.0000 </r>
       <r>   11.7892    0.0000 </r>
      </set>
      <set comment="kpoint 37">
       <r>  -17.4944    1.0000 </r>
       <r>  -15.4865    1.0000 </r>
       <r>   -9.0827    1.0000 </r>
       <r>   -5.3507    1.0000 </r>
       <r>   -0.7860    0.0000 </r>
       <r>    4.7610    0.0000 </r>
       <r>    7.2923    0.0000 </r>
       <r>    8.1645    0.0000 </r>
       <r>    8.6734    0.0000 </r>
       <r>    9.4675    0.0000 </r>
       <r>    9.6416    0.0000 </r>
       <r>    9.9640    0.0000 </r>
       <r>   10.5154    0.0000 </r>
       <r>   11.1910    0.0000 </r>
       <r>   11.4261    0.0000 </r>
       <r>   11.9488    0.0000 </r>
      </set>
      <set comment="kpoint 38">
       <r>  -17.2857    1.0000 </r>
       <r>  -15.7241    1.0000 </r>
       <r>   -9.1019    1.0000 </r>
       <r>   -5.2351    1.0000 </r>
       <r>   -0.9321    0.0000 </r>
       <r>    4.7517    0.0000 </r>
       <r>    7.6630    0.0000 </r>
       <r>    8.5370    0.0000 </r>
       <r>    9.0648    0.0000 </r>
       <r>    9.2399    0.0000 </r>
       <r>    9.8235    0.0000 </r>
       <r>   10.1495    0.0000 </r>
       <r>   10.3456    0.0000 </r>
       <r>   10.7455    0.0000 </r>
       <r>   11.4240    0.0000 </r>
       <r>   11.8596    0.0000 </r>
      </set>
      <set comment="kpoint 39">
       <r>  -17.1220    1.0000 </r>
       <r>  -15.9050    1.0000 </r>
       <r>   -9.1134    1.0000 </r>
       <r>   -5.1616    1.0000 </r>
       <r>   -1.0239    0.0000 </r>
       <r>    4.7460    0.0000 </r>
       <r>    8.0395    0.0000 </r>
       <r>    8.8394    0.0000 </r>
       <r>    8.9129    0.0000 </r>
       <r>    9.4712    0.0000 </r>
       <r>    9.7088    0.0000 </r>
       <r>   10.2565    0.0000 </r>
       <r>   10.3099    0.0000 </r>
       <r>   10.7397    0.0000 </r>
       <r>   11.0557    0.0000 </r>
       <r>   11.5562    0.0000 </r>
      </set>
      <set comment="kpoint 40">
       <r>  -17.0553    1.0000 </r>
       <r>  -15.9774    1.0000 </r>
       <r>   -9.1173    1.0000 </r>
       <r>   -5.1363    1.0000 </r>
       <r>   -1.0553    0.0000 </r>
       <r>    4.7441    0.0000 </r>
       <r>    8.3563    0.0000 </r>
       <r>    8.5157    0.0000 </r>
       <r>    9.2152    0.0000 </r>
       <r>    9.4088    0.0000 </r>
       <r>    9.8802    0.0000 </r>
       <r>    9.8901    0.0000 </r>
       <r>   10.5653    0.0000 </r>
       <r>   10.7363    0.0000 </r>
       <r>   11.1246    0.0000 </r>
       <r>   11.1623    0.0000 </r>
      </set>
      <set comment="kpoint 41">
       <r>  -17.0553    1.0000 </r>
       <r>  -15.9774    1.0000 </r>
       <r>   -9.1173    1.0000 </r>
       <r>   -5.1363    1.0000 </r>
       <r>   -1.0553    0.0000 </r>
       <r>    4.7441    0.0000 </r>
       <r>    8.3563    0.0000 </r>
       <r>    8.5157    0.0000 </r>
       <r>    9.2152    0.0000 </r>
       <r>    9.4088    0.0000 </r>
       <r>    9.8802    0.0000 </r>
       <r>    9.8901    0.0000 </r>
       <r>   10.5653    0.0000 </r>
       <r>   10.7363    0.0000 </r>
       <r>   11.1246    0.0000 </r>
       <r>   11.1623    0.0000 </r>
      </set>
      <set comment="kpoint 42">
       <r>  -17.0542    1.0000 </r>
       <r>  -15.9763    1.0000 </r>
       <r>   -9.1232    1.0000 </r>
       <r>   -5.1347    1.0000 </r>
       <r>   -1.0556    0.0000 </r>
       <r>    4.7521    0.0000 </r>
       <r>    8.3578    0.0000 </r>
       <r>    8.5173    0.0000 </r>
       <r>    9.2153    0.0000 </r>
       <r>    9.4106    0.0000 </r>
       <r>    9.8820    0.0000 </r>
       <r>    9.8920    0.0000 </r>
       <r>   10.5661    0.0000 </r>
       <r>   10.7381    0.0000 </r>
       <r>   11.1262    0.0000 </r>
       <r>   11.1640    0.0000 </r>
      </set>
      <set comment="kpoint 43">
       <r>  -17.0509    1.0000 </r>
       <r>  -15.9730    1.0000 </r>
       <r>   -9.1408    1.0000 </r>
       <r>   -5.1299    1.0000 </r>
       <r>   -1.0567    0.0000 </r>
       <r>    4.7759    0.0000 </r>
       <r>    8.3624    0.0000 </r>
       <r>    8.5222    0.0000 </r>
       <r>    9.2159    0.0000 </r>
       <r>    9.4160    0.0000 </r>
       <r>    9.8873    0.0000 </r>
       <r>    9.8974    0.0000 </r>
       <r>   10.5685    0.0000 </r>
       <r>   10.7435    0.0000 </r>
       <r>   11.1311    0.0000 </r>
       <r>   11.1692    0.0000 </r>
      </set>
      <set comment="kpoint 44">
       <r>  -17.0453    1.0000 </r>
       <r>  -15.9674    1.0000 </r>
       <r>   -9.1701    1.0000 </r>
       <r>   -5.1220    1.0000 </r>
       <r>   -1.0584    0.0000 </r>
       <r>    4.8155    0.0000 </r>
       <r>    8.3700    0.0000 </r>
       <r>    8.5304    0.0000 </r>
       <r>    9.2167    0.0000 </r>
       <r>    9.4250    0.0000 </r>
       <r>    9.8961    0.0000 </r>
       <r>    9.9065    0.0000 </r>
       <r>   10.5725    0.0000 </r>
       <r>   10.7526    0.0000 </r>
       <r>   11.1393    0.0000 </r>
       <r>   11.1778    0.0000 </r>
      </set>
      <set comment="kpoint 45">
       <r>  -17.0375    1.0000 </r>
       <r>  -15.9597    1.0000 </r>
       <r>   -9.2108    1.0000 </r>
       <r>   -5.1109    1.0000 </r>
       <r>   -1.0609    0.0000 </r>
       <r>    4.8705    0.0000 </r>
       <r>    8.3807    0.0000 </r>
       <r>    8.5418    0.0000 </r>
       <r>    9.2176    0.0000 </r>
       <r>    9.4375    0.0000 </r>
       <r>    9.9085    0.0000 </r>
       <r>    9.9193    0.0000 </r>
       <r>   10.5779    0.0000 </r>
       <r>   10.7652    0.0000 </r>
       <r>   11.1507    0.0000 </r>
       <r>   11.1899    0.0000 </r>
      </set>
      <set comment="kpoint 46">
       <r>  -17.0274    1.0000 </r>
       <r>  -15.9497    1.0000 </r>
       <r>   -9.2626    1.0000 </r>
       <r>   -5.0967    1.0000 </r>
       <r>   -1.0642    0.0000 </r>
       <r>    4.9407    0.0000 </r>
       <r>    8.3944    0.0000 </r>
       <r>    8.5565    0.0000 </r>
       <r>    9.2183    0.0000 </r>
       <r>    9.4537    0.0000 </r>
       <r>    9.9244    0.0000 </r>
       <r>    9.9357    0.0000 </r>
       <r>   10.5849    0.0000 </r>
       <r>   10.7814    0.0000 </r>
       <r>   11.1654    0.0000 </r>
       <r>   11.2054    0.0000 </r>
      </set>
      <set comment="kpoint 47">
       <r>  -17.0152    1.0000 </r>
       <r>  -15.9375    1.0000 </r>
       <r>   -9.3251    1.0000 </r>
       <r>   -5.0792    1.0000 </r>
       <r>   -1.0684    0.0000 </r>
       <r>    5.0257    0.0000 </r>
       <r>    8.4111    0.0000 </r>
       <r>    8.5744    0.0000 </r>
       <r>    9.2186    0.0000 </r>
       <r>    9.4734    0.0000 </r>
       <r>    9.9438    0.0000 </r>
       <r>    9.9557    0.0000 </r>
       <r>   10.5931    0.0000 </r>
       <r>   10.8012    0.0000 </r>
       <r>   11.1834    0.0000 </r>
       <r>   11.2244    0.0000 </r>
      </set>
      <set comment="kpoint 48">
       <r>  -17.0007    1.0000 </r>
       <r>  -15.9232    1.0000 </r>
       <r>   -9.3979    1.0000 </r>
       <r>   -5.0586    1.0000 </r>
       <r>   -1.0735    0.0000 </r>
       <r>    5.1249    0.0000 </r>
       <r>    8.4309    0.0000 </r>
       <r>    8.5956    0.0000 </r>
       <r>    9.2179    0.0000 </r>
       <r>    9.4967    0.0000 </r>
       <r>    9.9668    0.0000 </r>
       <r>    9.9793    0.0000 </r>
       <r>   10.6027    0.0000 </r>
       <r>   10.8247    0.0000 </r>
       <r>   11.2045    0.0000 </r>
       <r>   11.2468    0.0000 </r>
      </set>
      <set comment="kpoint 49">
       <r>  -16.9840    1.0000 </r>
       <r>  -15.9067    1.0000 </r>
       <r>   -9.4805    1.0000 </r>
       <r>   -5.0349    1.0000 </r>
       <r>   -1.0797    0.0000 </r>
       <r>    5.2378    0.0000 </r>
       <r>    8.4536    0.0000 </r>
       <r>    8.6199    0.0000 </r>
       <r>    9.2159    0.0000 </r>
       <r>    9.5236    0.0000 </r>
       <r>    9.9934    0.0000 </r>
       <r>   10.0066    0.0000 </r>
       <r>   10.6135    0.0000 </r>
       <r>   10.8517    0.0000 </r>
       <r>   11.2289    0.0000 </r>
       <r>   11.2725    0.0000 </r>
      </set>
      <set comment="kpoint 50">
       <r>  -16.9650    1.0000 </r>
       <r>  -15.8881    1.0000 </r>
       <r>   -9.5723    1.0000 </r>
       <r>   -5.0080    1.0000 </r>
       <r>   -1.0870    0.0000 </r>
       <r>    5.3638    0.0000 </r>
       <r>    8.4793    0.0000 </r>
       <r>    8.6475    0.0000 </r>
       <r>    9.2118    0.0000 </r>
       <r>    9.5541    0.0000 </r>
       <r>   10.0235    0.0000 </r>
       <r>   10.0375    0.0000 </r>
       <r>   10.6255    0.0000 </r>
       <r>   10.8823    0.0000 </r>
       <r>   11.2565    0.0000 </r>
       <r>   11.3017    0.0000 </r>
      </set>
      <set comment="kpoint 51">
       <r>  -16.9438    1.0000 </r>
       <r>  -15.8674    1.0000 </r>
       <r>   -9.6727    1.0000 </r>
       <r>   -4.9779    1.0000 </r>
       <r>   -1.0957    0.0000 </r>
       <r>    5.5024    0.0000 </r>
       <r>    8.5079    0.0000 </r>
       <r>    8.6783    0.0000 </r>
       <r>    9.2051    0.0000 </r>
       <r>    9.5882    0.0000 </r>
       <r>   10.0571    0.0000 </r>
       <r>   10.0719    0.0000 </r>
       <r>   10.6386    0.0000 </r>
       <r>   10.9166    0.0000 </r>
       <r>   11.2872    0.0000 </r>
       <r>   11.3343    0.0000 </r>
      </set>
      <set comment="kpoint 52">
       <r>  -16.9204    1.0000 </r>
       <r>  -15.8445    1.0000 </r>
       <r>   -9.7813    1.0000 </r>
       <r>   -4.9447    1.0000 </r>
       <r>   -1.1058    0.0000 </r>
       <r>    5.6527    0.0000 </r>
       <r>    8.5394    0.0000 </r>
       <r>    8.7123    0.0000 </r>
       <r>    9.1950    0.0000 </r>
       <r>    9.6258    0.0000 </r>
       <r>   10.0943    0.0000 </r>
       <r>   10.1100    0.0000 </r>
       <r>   10.6528    0.0000 </r>
       <r>   10.9544    0.0000 </r>
       <r>   11.3211    0.0000 </r>
       <r>   11.3703    0.0000 </r>
      </set>
      <set comment="kpoint 53">
       <r>  -16.8947    1.0000 </r>
       <r>  -15.8197    1.0000 </r>
       <r>   -9.8973    1.0000 </r>
       <r>   -4.9083    1.0000 </r>
       <r>   -1.1174    0.0000 </r>
       <r>    5.8142    0.0000 </r>
       <r>    8.5738    0.0000 </r>
       <r>    8.7494    0.0000 </r>
       <r>    9.1807    0.0000 </r>
       <r>    9.6670    0.0000 </r>
       <r>   10.1351    0.0000 </r>
       <r>   10.1517    0.0000 </r>
       <r>   10.6684    0.0000 </r>
       <r>   10.9958    0.0000 </r>
       <r>   11.3581    0.0000 </r>
       <r>   11.4097    0.0000 </r>
      </set>
      <set comment="kpoint 54">
       <r>  -16.8669    1.0000 </r>
       <r>  -15.7928    1.0000 </r>
       <r>  -10.0202    1.0000 </r>
       <r>   -4.8688    1.0000 </r>
       <r>   -1.1308    0.0000 </r>
       <r>    5.9860    0.0000 </r>
       <r>    8.6111    0.0000 </r>
       <r>    8.7897    0.0000 </r>
       <r>    9.1614    0.0000 </r>
       <r>    9.7118    0.0000 </r>
       <r>   10.1794    0.0000 </r>
       <r>   10.1969    0.0000 </r>
       <r>   10.6856    0.0000 </r>
       <r>   11.0409    0.0000 </r>
       <r>   11.3981    0.0000 </r>
       <r>   11.4523    0.0000 </r>
      </set>
      <set comment="kpoint 55">
       <r>  -16.8368    1.0000 </r>
       <r>  -15.7640    1.0000 </r>
       <r>  -10.1494    1.0000 </r>
       <r>   -4.8262    1.0000 </r>
       <r>   -1.1462    0.0000 </r>
       <r>    6.1675    0.0000 </r>
       <r>    8.6511    0.0000 </r>
       <r>    8.8331    0.0000 </r>
       <r>    9.1363    0.0000 </r>
       <r>    9.7602    0.0000 </r>
       <r>   10.2273    0.0000 </r>
       <r>   10.2457    0.0000 </r>
       <r>   10.7046    0.0000 </r>
       <r>   11.0895    0.0000 </r>
       <r>   11.4411    0.0000 </r>
       <r>   11.4983    0.0000 </r>
      </set>
      <set comment="kpoint 56">
       <r>  -16.8045    1.0000 </r>
       <r>  -15.7333    1.0000 </r>
       <r>  -10.2842    1.0000 </r>
       <r>   -4.7804    1.0000 </r>
       <r>   -1.1637    0.0000 </r>
       <r>    6.3580    0.0000 </r>
       <r>    8.6938    0.0000 </r>
       <r>    8.8796    0.0000 </r>
       <r>    9.1049    0.0000 </r>
       <r>    9.8122    0.0000 </r>
       <r>   10.2787    0.0000 </r>
       <r>   10.2981    0.0000 </r>
       <r>   10.7259    0.0000 </r>
       <r>   11.1417    0.0000 </r>
       <r>   11.4870    0.0000 </r>
       <r>   11.5476    0.0000 </r>
      </set>
      <set comment="kpoint 57">
       <r>  -16.7699    1.0000 </r>
       <r>  -15.7008    1.0000 </r>
       <r>  -10.4240    1.0000 </r>
       <r>   -4.7315    1.0000 </r>
       <r>   -1.1836    0.0000 </r>
       <r>    6.5566    0.0000 </r>
       <r>    8.7393    0.0000 </r>
       <r>    8.9291    0.0000 </r>
       <r>    9.0668    0.0000 </r>
       <r>    9.8677    0.0000 </r>
       <r>   10.3336    0.0000 </r>
       <r>   10.3541    0.0000 </r>
       <r>   10.7501    0.0000 </r>
       <r>   11.1976    0.0000 </r>
       <r>   11.5358    0.0000 </r>
       <r>   11.6002    0.0000 </r>
      </set>
      <set comment="kpoint 58">
       <r>  -16.7331    1.0000 </r>
       <r>  -15.6665    1.0000 </r>
       <r>  -10.5684    1.0000 </r>
       <r>   -4.6794    1.0000 </r>
       <r>   -1.2059    0.0000 </r>
       <r>    6.7626    0.0000 </r>
       <r>    8.7873    0.0000 </r>
       <r>    8.9817    0.0000 </r>
       <r>    9.0217    0.0000 </r>
       <r>    9.9268    0.0000 </r>
       <r>   10.3921    0.0000 </r>
       <r>   10.4137    0.0000 </r>
       <r>   10.7777    0.0000 </r>
       <r>   11.2570    0.0000 </r>
       <r>   11.5874    0.0000 </r>
       <r>   11.6560    0.0000 </r>
      </set>
      <set comment="kpoint 59">
       <r>  -16.6942    1.0000 </r>
       <r>  -15.6306    1.0000 </r>
       <r>  -10.7165    1.0000 </r>
       <r>   -4.6243    1.0000 </r>
       <r>   -1.2311    0.0000 </r>
       <r>    6.9752    0.0000 </r>
       <r>    8.8379    0.0000 </r>
       <r>    8.9698    0.0000 </r>
       <r>    9.0372    0.0000 </r>
       <r>    9.9895    0.0000 </r>
       <r>   10.4541    0.0000 </r>
       <r>   10.4768    0.0000 </r>
       <r>   10.8092    0.0000 </r>
       <r>   11.3200    0.0000 </r>
       <r>   11.6416    0.0000 </r>
       <r>   11.7150    0.0000 </r>
      </set>
      <set comment="kpoint 60">
       <r>  -16.6530    1.0000 </r>
       <r>  -15.5932    1.0000 </r>
       <r>  -10.8680    1.0000 </r>
       <r>   -4.5660    1.0000 </r>
       <r>   -1.2593    0.0000 </r>
       <r>    7.1935    0.0000 </r>
       <r>    8.8909    0.0000 </r>
       <r>    8.9116    0.0000 </r>
       <r>    9.0958    0.0000 </r>
       <r>   10.0557    0.0000 </r>
       <r>   10.5197    0.0000 </r>
       <r>   10.5435    0.0000 </r>
       <r>   10.8451    0.0000 </r>
       <r>   11.3866    0.0000 </r>
       <r>   11.6983    0.0000 </r>
       <r>   11.7772    0.0000 </r>
      </set>
      <set comment="kpoint 61">
       <r>  -16.6095    1.0000 </r>
       <r>  -15.5543    1.0000 </r>
       <r>  -11.0222    1.0000 </r>
       <r>   -4.5047    1.0000 </r>
       <r>   -1.2906    0.0000 </r>
       <r>    7.4167    0.0000 </r>
       <r>    8.8477    0.0000 </r>
       <r>    8.9462    0.0000 </r>
       <r>    9.1573    0.0000 </r>
       <r>   10.1255    0.0000 </r>
       <r>   10.5887    0.0000 </r>
       <r>   10.6137    0.0000 </r>
       <r>   10.8859    0.0000 </r>
       <r>   11.4568    0.0000 </r>
       <r>   11.7575    0.0000 </r>
       <r>   11.8425    0.0000 </r>
      </set>
      <set comment="kpoint 62">
       <r>  -16.5639    1.0000 </r>
       <r>  -15.5143    1.0000 </r>
       <r>  -11.1785    1.0000 </r>
       <r>   -4.4402    1.0000 </r>
       <r>   -1.3255    0.0000 </r>
       <r>    7.6438    0.0000 </r>
       <r>    8.7791    0.0000 </r>
       <r>    9.0038    0.0000 </r>
       <r>    9.2217    0.0000 </r>
       <r>   10.1989    0.0000 </r>
       <r>   10.6612    0.0000 </r>
       <r>   10.6874    0.0000 </r>
       <r>   10.9318    0.0000 </r>
       <r>   11.5306    0.0000 </r>
       <r>   11.8188    0.0000 </r>
       <r>   11.9108    0.0000 </r>
      </set>
      <set comment="kpoint 63">
       <r>  -16.5160    1.0000 </r>
       <r>  -15.4732    1.0000 </r>
       <r>  -11.3364    1.0000 </r>
       <r>   -4.3727    1.0000 </r>
       <r>   -1.3640    0.0000 </r>
       <r>    7.8739    0.0000 </r>
       <r>    8.7070    0.0000 </r>
       <r>    9.0634    0.0000 </r>
       <r>    9.2891    0.0000 </r>
       <r>   10.2759    0.0000 </r>
       <r>   10.7372    0.0000 </r>
       <r>   10.7647    0.0000 </r>
       <r>   10.9829    0.0000 </r>
       <r>   11.6080    0.0000 </r>
       <r>   11.8821    0.0000 </r>
       <r>   11.9822    0.0000 </r>
      </set>
      <set comment="kpoint 64">
       <r>  -16.4660    1.0000 </r>
       <r>  -15.4312    1.0000 </r>
       <r>  -11.4953    1.0000 </r>
       <r>   -4.3021    1.0000 </r>
       <r>   -1.4064    0.0000 </r>
       <r>    8.1057    0.0000 </r>
       <r>    8.6326    0.0000 </r>
       <r>    9.1251    0.0000 </r>
       <r>    9.3596    0.0000 </r>
       <r>   10.3564    0.0000 </r>
       <r>   10.8167    0.0000 </r>
       <r>   10.8455    0.0000 </r>
       <r>   11.0394    0.0000 </r>
       <r>   11.6890    0.0000 </r>
       <r>   11.9471    0.0000 </r>
       <r>   12.0564    0.0000 </r>
      </set>
      <set comment="kpoint 65">
       <r>  -16.4137    1.0000 </r>
       <r>  -15.3888    1.0000 </r>
       <r>  -11.6545    1.0000 </r>
       <r>   -4.2284    1.0000 </r>
       <r>   -1.4530    0.0000 </r>
       <r>    8.3379    0.0000 </r>
       <r>    8.5571    0.0000 </r>
       <r>    9.1884    0.0000 </r>
       <r>    9.4332    0.0000 </r>
       <r>   10.4405    0.0000 </r>
       <r>   10.8995    0.0000 </r>
       <r>   10.9298    0.0000 </r>
       <r>   11.1010    0.0000 </r>
       <r>   11.7735    0.0000 </r>
       <r>   12.0136    0.0000 </r>
       <r>   12.1336    0.0000 </r>
      </set>
      <set comment="kpoint 66">
       <r>  -16.3592    1.0000 </r>
       <r>  -15.3463    1.0000 </r>
       <r>  -11.8134    1.0000 </r>
       <r>   -4.1516    1.0000 </r>
       <r>   -1.5038    0.0000 </r>
       <r>    8.4816    0.0000 </r>
       <r>    8.5688    0.0000 </r>
       <r>    9.2534    0.0000 </r>
       <r>    9.5103    0.0000 </r>
       <r>   10.5281    0.0000 </r>
       <r>   10.9858    0.0000 </r>
       <r>   11.0176    0.0000 </r>
       <r>   11.1679    0.0000 </r>
       <r>   11.8617    0.0000 </r>
       <r>   12.0811    0.0000 </r>
       <r>   12.2134    0.0000 </r>
      </set>
      <set comment="kpoint 67">
       <r>  -16.3026    1.0000 </r>
       <r>  -15.3040    1.0000 </r>
       <r>  -11.9712    1.0000 </r>
       <r>   -4.0719    1.0000 </r>
       <r>   -1.5591    0.0000 </r>
       <r>    8.4075    0.0000 </r>
       <r>    8.7964    0.0000 </r>
       <r>    9.3198    0.0000 </r>
       <r>    9.5914    0.0000 </r>
       <r>   10.6194    0.0000 </r>
       <r>   11.0754    0.0000 </r>
       <r>   11.1088    0.0000 </r>
       <r>   11.2397    0.0000 </r>
       <r>   11.9534    0.0000 </r>
       <r>   12.1493    0.0000 </r>
       <r>   12.2958    0.0000 </r>
      </set>
      <set comment="kpoint 68">
       <r>  -16.2437    1.0000 </r>
       <r>  -15.2627    1.0000 </r>
       <r>  -12.1271    1.0000 </r>
       <r>   -3.9891    1.0000 </r>
       <r>   -1.6190    0.0000 </r>
       <r>    8.3356    0.0000 </r>
       <r>    9.0177    0.0000 </r>
       <r>    9.3873    0.0000 </r>
       <r>    9.6777    0.0000 </r>
       <r>   10.7141    0.0000 </r>
       <r>   11.1683    0.0000 </r>
       <r>   11.2036    0.0000 </r>
       <r>   11.3163    0.0000 </r>
       <r>   12.0488    0.0000 </r>
       <r>   12.2176    0.0000 </r>
       <r>   12.3807    0.0000 </r>
      </set>
      <set comment="kpoint 69">
       <r>  -16.1826    1.0000 </r>
       <r>  -15.2229    1.0000 </r>
       <r>  -12.2802    1.0000 </r>
       <r>   -3.9032    1.0000 </r>
       <r>   -1.6838    0.0000 </r>
       <r>    8.2670    0.0000 </r>
       <r>    9.2284    0.0000 </r>
       <r>    9.4560    0.0000 </r>
       <r>    9.7711    0.0000 </r>
       <r>   10.8124    0.0000 </r>
       <r>   11.2645    0.0000 </r>
       <r>   11.3017    0.0000 </r>
       <r>   11.3975    0.0000 </r>
       <r>   12.1477    0.0000 </r>
       <r>   12.2856    0.0000 </r>
       <r>   12.4679    0.0000 </r>
      </set>
      <set comment="kpoint 70">
       <r>  -16.1193    1.0000 </r>
       <r>  -15.1857    1.0000 </r>
       <r>  -12.4292    1.0000 </r>
       <r>   -3.8144    1.0000 </r>
       <r>   -1.7534    0.0000 </r>
       <r>    8.2025    0.0000 </r>
       <r>    9.4220    0.0000 </r>
       <r>    9.5261    0.0000 </r>
       <r>    9.8749    0.0000 </r>
       <r>   10.9143    0.0000 </r>
       <r>   11.3638    0.0000 </r>
       <r>   11.4033    0.0000 </r>
       <r>   11.4830    0.0000 </r>
       <r>   12.2502    0.0000 </r>
       <r>   12.3527    0.0000 </r>
       <r>   12.5569    0.0000 </r>
      </set>
      <set comment="kpoint 71">
       <r>  -16.0539    1.0000 </r>
       <r>  -15.1520    1.0000 </r>
       <r>  -12.5730    1.0000 </r>
       <r>   -3.7225    1.0000 </r>
       <r>   -1.8279    0.0000 </r>
       <r>    8.1428    0.0000 </r>
       <r>    9.5772    0.0000 </r>
       <r>    9.6115    0.0000 </r>
       <r>    9.9933    0.0000 </r>
       <r>   11.0197    0.0000 </r>
       <r>   11.4661    0.0000 </r>
       <r>   11.5082    0.0000 </r>
       <r>   11.5725    0.0000 </r>
       <r>   12.3562    0.0000 </r>
       <r>   12.4183    0.0000 </r>
       <r>   12.6477    0.0000 </r>
      </set>
      <set comment="kpoint 72">
       <r>  -15.9862    1.0000 </r>
       <r>  -15.1233    1.0000 </r>
       <r>  -12.7098    1.0000 </r>
       <r>   -3.6277    1.0000 </r>
       <r>   -1.9074    0.0000 </r>
       <r>    8.0884    0.0000 </r>
       <r>    9.6567    0.0000 </r>
       <r>    9.7441    0.0000 </r>
       <r>   10.1274    0.0000 </r>
       <r>   11.1287    0.0000 </r>
       <r>   11.5713    0.0000 </r>
       <r>   11.6165    0.0000 </r>
       <r>   11.6655    0.0000 </r>
       <r>   12.4659    0.0000 </r>
       <r>   12.4821    0.0000 </r>
       <r>   12.7386    0.0000 </r>
      </set>
      <set comment="kpoint 73">
       <r>  -15.9164    1.0000 </r>
       <r>  -15.1014    1.0000 </r>
       <r>  -12.8377    1.0000 </r>
       <r>   -3.5299    1.0000 </r>
       <r>   -1.9919    0.0000 </r>
       <r>    8.0400    0.0000 </r>
       <r>    9.7254    0.0000 </r>
       <r>    9.8609    0.0000 </r>
       <r>   10.2706    0.0000 </r>
       <r>   11.2412    0.0000 </r>
       <r>   11.6791    0.0000 </r>
       <r>   11.7279    0.0000 </r>
       <r>   11.7616    0.0000 </r>
       <r>   12.5440    0.0000 </r>
       <r>   12.5791    0.0000 </r>
       <r>   12.8302    0.0000 </r>
      </set>
      <set comment="kpoint 74">
       <r>  -15.8444    1.0000 </r>
       <r>  -15.0883    1.0000 </r>
       <r>  -12.9547    1.0000 </r>
       <r>   -3.4292    1.0000 </r>
       <r>   -2.0814    0.0000 </r>
       <r>    7.9978    0.0000 </r>
       <r>    9.7918    0.0000 </r>
       <r>    9.9587    0.0000 </r>
       <r>   10.4113    0.0000 </r>
       <r>   11.3572    0.0000 </r>
       <r>   11.7893    0.0000 </r>
       <r>   11.8424    0.0000 </r>
       <r>   11.8599    0.0000 </r>
       <r>   12.6035    0.0000 </r>
       <r>   12.6958    0.0000 </r>
       <r>   12.9161    0.0000 </r>
      </set>
      <set comment="kpoint 75">
       <r>  -15.7703    1.0000 </r>
       <r>  -15.0862    1.0000 </r>
       <r>  -13.0582    1.0000 </r>
       <r>   -3.3255    1.0000 </r>
       <r>   -2.1758    0.0000 </r>
       <r>    7.9621    0.0000 </r>
       <r>    9.8560    0.0000 </r>
       <r>   10.0420    0.0000 </r>
       <r>   10.5381    0.0000 </r>
       <r>   11.4768    0.0000 </r>
       <r>   11.9014    0.0000 </r>
       <r>   11.9591    0.0000 </r>
       <r>   11.9596    0.0000 </r>
       <r>   12.6616    0.0000 </r>
       <r>   12.8160    0.0000 </r>
       <r>   12.9914    0.0000 </r>
      </set>
      <set comment="kpoint 76">
       <r>  -15.6940    1.0000 </r>
       <r>  -15.0975    1.0000 </r>
       <r>  -13.1457    1.0000 </r>
       <r>   -3.2190    1.0000 </r>
       <r>   -2.2750    0.0000 </r>
       <r>    7.9330    0.0000 </r>
       <r>    9.9173    0.0000 </r>
       <r>   10.1127    0.0000 </r>
       <r>   10.6418    0.0000 </r>
       <r>   11.5998    0.0000 </r>
       <r>   12.0150    0.0000 </r>
       <r>   12.0568    0.0000 </r>
       <r>   12.0792    0.0000 </r>
       <r>   12.7191    0.0000 </r>
       <r>   12.9397    0.0000 </r>
       <r>   13.0394    0.0000 </r>
      </set>
      <set comment="kpoint 77">
       <r>  -15.6156    1.0000 </r>
       <r>  -15.1243    1.0000 </r>
       <r>  -13.2152    1.0000 </r>
       <r>   -3.1095    1.0000 </r>
       <r>   -2.3789    0.0000 </r>
       <r>    7.9106    0.0000 </r>
       <r>    9.9753    0.0000 </r>
       <r>   10.1697    0.0000 </r>
       <r>   10.7160    0.0000 </r>
       <r>   11.7264    0.0000 </r>
       <r>   12.1292    0.0000 </r>
       <r>   12.1478    0.0000 </r>
       <r>   12.2003    0.0000 </r>
       <r>   12.7774    0.0000 </r>
       <r>   13.0225    0.0000 </r>
       <r>   13.0462    0.0000 </r>
      </set>
      <set comment="kpoint 78">
       <r>  -15.5351    1.0000 </r>
       <r>  -15.1679    1.0000 </r>
       <r>  -13.2648    1.0000 </r>
       <r>   -2.9972    1.0000 </r>
       <r>   -2.4872    0.0000 </r>
       <r>    7.8948    0.0000 </r>
       <r>   10.0290    0.0000 </r>
       <r>   10.2094    0.0000 </r>
       <r>   10.7584    0.0000 </r>
       <r>   11.8565    0.0000 </r>
       <r>   12.2196    0.0000 </r>
       <r>   12.2432    0.0000 </r>
       <r>   12.3217    0.0000 </r>
       <r>   12.8371    0.0000 </r>
[...]
       </set>
       <set comment="band 12">
        <r>  0.0099  0.1444  0.0000  0.0787  0.0000  0.0000  0.0000  0.0000  0.0000 </r>
        <r>  0.0099  0.1444  0.0000  0.0787  0.0000  0.0000  0.0000  0.0000  0.0000 </r>
       </set>
       <set comment="band 13">
        <r>  0.0038  0.0883  0.0000  0.1749  0.0000  0.0000  0.0000  0.0000  0.0000 </r>
        <r>  0.0038  0.0883  0.0000  0.1749  0.0000  0.0000  0.0000  0.0000  0.0000 </r>
       </set>
       <set comment="band 14">
        <r>  0.0000  0.0000  0.0177  0.0000  0.0000  0.0000  0.0000  0.0000  0.0000 </r>
        <r>  0.0000  0.0000  0.0177  0.0000  0.0000  0.0000  0.0000  0.0000  0.0000 </r>
       </set>
       <set comment="band 15">
        <r>  0.0000  0.0000  0.3791  0.0000  0.0000  0.0000  0.0000  0.0000  0.0000 </r>
        <r>  0.0000  0.0000  0.3791  0.0000  0.0000  0.0000  0.0000  0.0000  0.0000 </r>
       </set>
       <set comment="band 16">
        <r>  0.0065  0.0000  0.0000  0.0000  0.0000  0.0000  0.0000  0.0000  0.0000 </r>
        <r>  0.0065  0.0000  0.0000  0.0000  0.0000  0.0000  0.0000  0.0000  0.0000 </r>
       </set>
      </set>
      <set comment="kpoint 116">
       <set comment="band 1">
        <r>  0.3203  0.0013  0.0000  0.0004  0.0000  0.0000  0.0000  0.0000  0.0000 </r>
        <r>  0.3203  0.0013  0.0000  0.0004  0.0000  0.0000  0.0000  0.0000  0.0000 </r>
       </set>
       <set comment="band 2">
        <r>  0.0000  0.0000  0.2159  0.0000  0.0000  0.0000  0.0000  0.0000  0.0000 </r>
        <r>  0.0000  0.0000  0.2159  0.0000  0.0000  0.0000  0.0000  0.0000  0.0000 </r>
       </set>
       <set comment="band 3">
        <r>  0.0095  0.2747  0.0000  0.1246  0.0000  0.0000  0.0000  0.0000  0.0000 </r>
        <r>  0.0095  0.2747  0.0000  0.1246  0.0000  0.0000  0.0000  0.0000  0.0000 </r>
       </set>
       <set comment="band 4">
        <r>  0.0001  0.1281  0.0000  0.2817  0.0000  0.0000  0.0000  0.0000  0.0000 </r>
        <r>  0.0001  0.1281  0.0000  0.2817  0.0000  0.0000  0.0000  0.0000  0.0000 </r>
       </set>
       <set comment="band 5">
        <r>  0.0097  0.0002  0.0000  0.0001  0.0000  0.0000  0.0000  0.0000  0.0000 </r>
        <r>  0.0097  0.0002  0.0000  0.0001  0.0000  0.0000  0.0000  0.0000  0.0000 </r>
       </set>
       <set comment="band 6">
        <r>  0.0000  0.0000  0.0113  0.0000  0.0000  0.0000  0.0000  0.0000  0.0000 </r>
        <r>  0.0000  0.0000  0.0113  0.0000  0.0000  0.0000  0.0000  0.0000  0.0000 </r>
       </set>
       <set comment="band 7">
        <r>  0.0009  0.0000  0.0000  0.0000  0.0000  0.0000  0.0000  0.0000  0.0000 </r>
        <r>  0.0009  0.0000  0.0000  0.0000  0.0000  0.0000  0.0000  0.0000  0.0000 </r>
       </set>
       <set comment="band 8">
        <r>  0.0000  0.0000  0.0082  0.0000  0.0000  0.0000  0.0000  0.0000  0.0000 </r>
        <r>  0.0000  0.0000  0.0082  0.0000  0.0000  0.0000  0.0000  0.0000  0.0000 </r>
       </set>
       <set comment="band 9">
        <r>  0.0036  0.0001  0.0000  0.0001  0.0000  0.0000  0.0000  0.0000  0.0000 </r>
        <r>  0.0036  0.0001  0.0000  0.0001  0.0000  0.0000  0.0000  0.0000  0.0000 </r>
       </set>
       <set comment="band 10">
        <r>  0.0000  0.0000  0.0128  0.0000  0.0000  0.0000  0.0000  0.0000  0.0000 </r>
        <r>  0.0000  0.0000  0.0128  0.0000  0.0000  0.0000  0.0000  0.0000  0.0000 </r>
       </set>
       <set comment="band 11">
        <r>  0.0032  0.0107  0.0000  0.0055  0.0000  0.0000  0.0000  0.0000  0.0000 </r>
        <r>  0.0032  0.0107  0.0000  0.0055  0.0000  0.0000  0.0000  0.0000  0.0000 </r>
       </set>
       <set comment="band 12">
        <r>  0.0065  0.1442  0.0000  0.0947  0.0000  0.0000  0.0000  0.0000  0.0000 </r>
        <r>  0.0065  0.1442  0.0000  0.0947  0.0000  0.0000  0.0000  0.0000  0.0000 </r>
       </set>
       <set comment="band 13">
        <r>  0.0018  0.1009  0.0000  0.1626  0.0000  0.0000  0.0000  0.0000  0.0000 </r>
        <r>  0.0018  0.1009  0.0000  0.1626  0.0000  0.0000  0.0000  0.0000  0.0000 </r>
       </set>
       <set comment="band 14">
        <r>  0.0000  0.0000  0.0176  0.0000  0.0000  0.0000  0.0000  0.0000  0.0000 </r>
        <r>  0.0000  0.0000  0.0176  0.0000  0.0000  0.0000  0.0000  0.0000  0.0000 </r>
       </set>
       <set comment="band 15">
        <r>  0.0000  0.0000  0.3828  0.0000  0.0000  0.0000  0.0000  0.0000  0.0000 </r>
        <r>  0.0000  0.0000  0.3828  0.0000  0.0000  0.0000  0.0000  0.0000  0.0000 </r>
       </set>
       <set comment="band 16">
        <r>  0.0064  0.0000  0.0000  0.0000  0.0000  0.0000  0.0000  0.0000  0.0000 </r>
        <r>  0.0064  0.0000  0.0000  0.0000  0.0000  0.0000  0.0000  0.0000  0.0000 </r>
       </set>
      </set>
      <set comment="kpoint 117">
       <set comment="band 1">
        <r>  0.3209  0.0008  0.0000  0.0002  0.0000  0.0000  0.0000  0.0000  0.0000 </r>
        <r>  0.3209  0.0008  0.0000  0.0002  0.0000  0.0000  0.0000  0.0000  0.0000 </r>
       </set>
       <set comment="band 2">
        <r>  0.0000  0.0000  0.2158  0.0000  0.0000  0.0000  0.0000  0.0000  0.0000 </r>
        <r>  0.0000  0.0000  0.2158  0.0000  0.0000  0.0000  0.0000  0.0000  0.0000 </r>
       </set>
       <set comment="band 3">
        <r>  0.0055  0.2683  0.0000  0.1363  0.0000  0.0000  0.0000  0.0000  0.0000 </r>
        <r>  0.0055  0.2683  0.0000  0.1363  0.0000  0.0000  0.0000  0.0000  0.0000 </r>
       </set>
       <set comment="band 4">
        <r>  0.0001  0.1386  0.0000  0.2722  0.0000  0.0000  0.0000  0.0000  0.0000 </r>
        <r>  0.0001  0.1386  0.0000  0.2722  0.0000  0.0000  0.0000  0.0000  0.0000 </r>
       </set>
       <set comment="band 5">
        <r>  0.0098  0.0001  0.0000  0.0000  0.0000  0.0000  0.0000  0.0000  0.0000 </r>
        <r>  0.0098  0.0001  0.0000  0.0000  0.0000  0.0000  0.0000  0.0000  0.0000 </r>
       </set>
       <set comment="band 6">
        <r>  0.0000  0.0000  0.0113  0.0000  0.0000  0.0000  0.0000  0.0000  0.0000 </r>
        <r>  0.0000  0.0000  0.0113  0.0000  0.0000  0.0000  0.0000  0.0000  0.0000 </r>
       </set>
       <set comment="band 7">
        <r>  0.0010  0.0000  0.0000  0.0000  0.0000  0.0000  0.0000  0.0000  0.0000 </r>
        <r>  0.0010  0.0000  0.0000  0.0000  0.0000  0.0000  0.0000  0.0000  0.0000 </r>
       </set>
       <set comment="band 8">
        <r>  0.0000  0.0000  0.0082  0.0000  0.0000  0.0000  0.0000  0.0000  0.0000 </r>
        <r>  0.0000  0.0000  0.0082  0.0000  0.0000  0.0000  0.0000  0.0000  0.0000 </r>
       </set>
       <set comment="band 9">
        <r>  0.0037  0.0001  0.0000  0.0000  0.0000  0.0000  0.0000  0.0000  0.0000 </r>
        <r>  0.0037  0.0001  0.0000  0.0000  0.0000  0.0000  0.0000  0.0000  0.0000 </r>
       </set>
       <set comment="band 10">
        <r>  0.0000  0.0000  0.0128  0.0000  0.0000  0.0000  0.0000  0.0000  0.0000 </r>
        <r>  0.0000  0.0000  0.0128  0.0000  0.0000  0.0000  0.0000  0.0000  0.0000 </r>
       </set>
       <set comment="band 11">
        <r>  0.0041  0.0054  0.0000  0.0030  0.0000  0.0000  0.0000  0.0000  0.0000 </r>
        <r>  0.0041  0.0054  0.0000  0.0030  0.0000  0.0000  0.0000  0.0000  0.0000 </r>
       </set>
       <set comment="band 12">
        <r>  0.0036  0.1261  0.0000  0.1240  0.0000  0.0000  0.0000  0.0000  0.0000 </r>
        <r>  0.0036  0.1261  0.0000  0.1240  0.0000  0.0000  0.0000  0.0000  0.0000 </r>
       </set>
       <set comment="band 13">
        <r>  0.0008  0.1274  0.0000  0.1356  0.0000  0.0000  0.0000  0.0000  0.0000 </r>
        <r>  0.0008  0.1274  0.0000  0.1356  0.0000  0.0000  0.0000  0.0000  0.0000 </r>
       </set>
       <set comment="band 14">
        <r>  0.0000  0.0000  0.0176  0.0000  0.0000  0.0000  0.0000  0.0000  0.0000 </r>
        <r>  0.0000  0.0000  0.0176  0.0000  0.0000  0.0000  0.0000  0.0000  0.0000 </r>
       </set>
       <set comment="band 15">
        <r>  0.0063  0.0000  0.0000  0.0000  0.0000  0.0000  0.0000  0.0000  0.0000 </r>
        <r>  0.0063  0.0000  0.0000  0.0000  0.0000  0.0000  0.0000  0.0000  0.0000 </r>
       </set>
       <set comment="band 16">
        <r>  0.0000  0.0000  0.3858  0.0000  0.0000  0.0000  0.0000  0.0000  0.0000 </r>
        <r>  0.0000  0.0000  0.3858  0.0000  0.0000  0.0000  0.0000  0.0000  0.0000 </r>
       </set>
      </set>
      <set comment="kpoint 118">
       <set comment="band 1">
        <r>  0.3213  0.0003  0.0000  0.0001  0.0000  0.0000  0.0000  0.0000  0.0000 </r>
        <r>  0.3213  0.0003  0.0000  0.0001  0.0000  0.0000  0.0000  0.0000  0.0000 </r>
       </set>
       <set comment="band 2">
        <r>  0.0000  0.0000  0.2157  0.0000  0.0000  0.0000  0.0000  0.0000  0.0000 </r>
        <r>  0.0000  0.0000  0.2157  0.0000  0.0000  0.0000  0.0000  0.0000  0.0000 </r>
       </set>
       <set comment="band 3">
        <r>  0.0024  0.2398  0.0000  0.1689  0.0000  0.0000  0.0000  0.0000  0.0000 </r>
        <r>  0.0024  0.2398  0.0000  0.1689  0.0000  0.0000  0.0000  0.0000  0.0000 </r>
       </set>
       <set comment="band 4">
        <r>  0.0001  0.1704  0.0000  0.2413  0.0000  0.0000  0.0000  0.0000  0.0000 </r>
        <r>  0.0001  0.1704  0.0000  0.2413  0.0000  0.0000  0.0000  0.0000  0.0000 </r>
       </set>
       <set comment="band 5">
        <r>  0.0099  0.0000  0.0000  0.0000  0.0000  0.0000  0.0000  0.0000  0.0000 </r>
        <r>  0.0099  0.0000  0.0000  0.0000  0.0000  0.0000  0.0000  0.0000  0.0000 </r>
       </set>
       <set comment="band 6">
        <r>  0.0000  0.0000  0.0113  0.0000  0.0000  0.0000  0.0000  0.0000  0.0000 </r>
        <r>  0.0000  0.0000  0.0113  0.0000  0.0000  0.0000  0.0000  0.0000  0.0000 </r>
       </set>
       <set comment="band 7">
        <r>  0.0010  0.0000  0.0000  0.0000  0.0000  0.0000  0.0000  0.0000  0.0000 </r>
        <r>  0.0010  0.0000  0.0000  0.0000  0.0000  0.0000  0.0000  0.0000  0.0000 </r>
       </set>
       <set comment="band 8">
        <r>  0.0000  0.0000  0.0082  0.0000  0.0000  0.0000  0.0000  0.0000  0.0000 </r>
        <r>  0.0000  0.0000  0.0082  0.0000  0.0000  0.0000  0.0000  0.0000  0.0000 </r>
       </set>
       <set comment="band 9">
        <r>  0.0037  0.0000  0.0000  0.0000  0.0000  0.0000  0.0000  0.0000  0.0000 </r>
        <r>  0.0037  0.0000  0.0000  0.0000  0.0000  0.0000  0.0000  0.0000  0.0000 </r>
       </set>
       <set comment="band 10">
        <r>  0.0000  0.0000  0.0128  0.0000  0.0000  0.0000  0.0000  0.0000  0.0000 </r>
        <r>  0.0000  0.0000  0.0128  0.0000  0.0000  0.0000  0.0000  0.0000  0.0000 </r>
       </set>
       <set comment="band 11">
        <r>  0.0049  0.0022  0.0000  0.0014  0.0000  0.0000  0.0000  0.0000  0.0000 </r>
        <r>  0.0049  0.0022  0.0000  0.0014  0.0000  0.0000  0.0000  0.0000  0.0000 </r>
       </set>
       <set comment="band 12">
        <r>  0.0015  0.0800  0.0000  0.1775  0.0000  0.0000  0.0000  0.0000  0.0000 </r>
        <r>  0.0015  0.0800  0.0000  0.1775  0.0000  0.0000  0.0000  0.0000  0.0000 </r>
       </set>
       <set comment="band 13">
        <r>  0.0005  0.1787  0.0000  0.0835  0.0000  0.0000  0.0000  0.0000  0.0000 </r>
        <r>  0.0005  0.1787  0.0000  0.0835  0.0000  0.0000  0.0000  0.0000  0.0000 </r>
       </set>
       <set comment="band 14">
        <r>  0.0000  0.0000  0.0175  0.0000  0.0000  0.0000  0.0000  0.0000  0.0000 </r>
        <r>  0.0000  0.0000  0.0175  0.0000  0.0000  0.0000  0.0000  0.0000  0.0000 </r>
       </set>
       <set comment="band 15">
        <r>  0.0062  0.0000  0.0000  0.0000  0.0000  0.0000  0.0000  0.0000  0.0000 </r>
        <r>  0.0062  0.0000  0.0000  0.0000  0.0000  0.0000  0.0000  0.0000  0.0000 </r>
       </set>
       <set comment="band 16">
        <r>  0.0000  0.0000  0.3880  0.0000  0.0000  0.0000  0.0000  0.0000  0.0000 </r>
        <r>  0.0000  0.0000  0.3880  0.0000  0.0000  0.0000  0.0000  0.0000  0.0000 </r>
       </set>
      </set>
      <set comment="kpoint 119">
       <set comment="band 1">
        <r>  0.3215  0.0001  0.0000  0.0000  0.0000  0.0000  0.0000  0.0000  0.0000 </r>
        <r>  0.3215  0.0001  0.0000  0.0000  0.0000  0.0000  0.0000  0.0000  0.0000 </r>
       </set>
       <set comment="band 2">
        <r>  0.0000  0.0000  0.2156  0.0000  0.0000  0.0000  0.0000  0.0000  0.0000 </r>
        <r>  0.0000  0.0000  0.2156  0.0000  0.0000  0.0000  0.0000  0.0000  0.0000 </r>
       </set>
       <set comment="band 3">
        <r>  0.0005  0.1259  0.0000  0.2850  0.0000  0.0000  0.0000  0.0000  0.0000 </r>
        <r>  0.0005  0.1259  0.0000  0.2850  0.0000  0.0000  0.0000  0.0000  0.0000 </r>
       </set>
       <set comment="band 4">
        <r>  0.0001  0.2862  0.0000  0.1262  0.0000  0.0000  0.0000  0.0000  0.0000 </r>
        <r>  0.0001  0.2862  0.0000  0.1262  0.0000  0.0000  0.0000  0.0000  0.0000 </r>
       </set>
       <set comment="band 5">
        <r>  0.0099  0.0000  0.0000  0.0000  0.0000  0.0000  0.0000  0.0000  0.0000 </r>
        <r>  0.0099  0.0000  0.0000  0.0000  0.0000  0.0000  0.0000  0.0000  0.0000 </r>
       </set>
       <set comment="band 6">
        <r>  0.0000  0.0000  0.0113  0.0000  0.0000  0.0000  0.0000  0.0000  0.0000 </r>
        <r>  0.0000  0.0000  0.0113  0.0000  0.0000  0.0000  0.0000  0.0000  0.0000 </r>
       </set>
       <set comment="band 7">
        <r>  0.0010  0.0000  0.0000  0.0000  0.0000  0.0000  0.0000  0.0000  0.0000 </r>
        <r>  0.0010  0.0000  0.0000  0.0000  0.0000  0.0000  0.0000  0.0000  0.0000 </r>
       </set>
       <set comment="band 8">
        <r>  0.0000  0.0000  0.0082  0.0000  0.0000  0.0000  0.0000  0.0000  0.0000 </r>
        <r>  0.0000  0.0000  0.0082  0.0000  0.0000  0.0000  0.0000  0.0000  0.0000 </r>
       </set>
       <set comment="band 9">
        <r>  0.0037  0.0000  0.0000  0.0000  0.0000  0.0000  0.0000  0.0000  0.0000 </r>
        <r>  0.0037  0.0000  0.0000  0.0000  0.0000  0.0000  0.0000  0.0000  0.0000 </r>
       </set>
       <set comment="band 10">
        <r>  0.0000  0.0000  0.0127  0.0000  0.0000  0.0000  0.0000  0.0000  0.0000 </r>
        <r>  0.0000  0.0000  0.0127  0.0000  0.0000  0.0000  0.0000  0.0000  0.0000 </r>
       </set>
       <set comment="band 11">
        <r>  0.0053  0.0005  0.0000  0.0004  0.0000  0.0000  0.0000  0.0000  0.0000 </r>
        <r>  0.0053  0.0005  0.0000  0.0004  0.0000  0.0000  0.0000  0.0000  0.0000 </r>
       </set>
       <set comment="band 12">
        <r>  0.0003  0.0315  0.0000  0.2298  0.0000  0.0000  0.0000  0.0000  0.0000 </r>
        <r>  0.0003  0.0315  0.0000  0.2298  0.0000  0.0000  0.0000  0.0000  0.0000 </r>
       </set>
       <set comment="band 13">
        <r>  0.0003  0.2300  0.0000  0.0321  0.0000  0.0000  0.0000  0.0000  0.0000 </r>
        <r>  0.0003  0.2300  0.0000  0.0321  0.0000  0.0000  0.0000  0.0000  0.0000 </r>
       </set>
       <set comment="band 14">
        <r>  0.0000  0.0000  0.0175  0.0000  0.0000  0.0000  0.0000  0.0000  0.0000 </r>
        <r>  0.0000  0.0000  0.0175  0.0000  0.0000  0.0000  0.0000  0.0000  0.0000 </r>
       </set>
       <set comment="band 15">
        <r>  0.0062  0.0000  0.0000  0.0000  0.0000  0.0000  0.0000  0.0000  0.0000 </r>
        <r>  0.0062  0.0000  0.0000  0.0000  0.0000  0.0000  0.0000  0.0000  0.0000 </r>
       </set>
       <set comment="band 16">
        <r>  0.0000  0.0000  0.3894  0.0000  0.0000  0.0000  0.0000  0.0000  0.0000 </r>
        <r>  0.0000  0.0000  0.3894  0.0000  0.0000  0.0000  0.0000  0.0000  0.0000 </r>
       </set>
      </set>
      <set comment="kpoint 120">
       <set comment="band 1">
        <r>  0.3216  0.0000  0.0000  0.0000  0.0000  0.0000  0.0000  0.0000  0.0000 </r>
        <r>  0.3216  0.0000  0.0000  0.0000  0.0000  0.0000  0.0000  0.0000  0.0000 </r>
       </set>
       <set comment="band 2">
        <r>  0.0000  0.0000  0.2156  0.0000  0.0000  0.0000  0.0000  0.0000  0.0000 </r>
        <r>  0.0000  0.0000  0.2156  0.0000  0.0000  0.0000  0.0000  0.0000  0.0000 </r>
       </set>
       <set comment="band 3">
        <r>  0.0000  0.0269  0.0000  0.3845  0.0000  0.0000  0.0000  0.0000  0.0000 </r>
        <r>  0.0000  0.0269  0.0000  0.3845  0.0000  0.0000  0.0000  0.0000  0.0000 </r>
       </set>
       <set comment="band 4">
        <r>  0.0000  0.3859  0.0000  0.0270  0.0000  0.0000  0.0000  0.0000  0.0000 </r>
        <r>  0.0000  0.3859  0.0000  0.0270  0.0000  0.0000  0.0000  0.0000  0.0000 </r>
       </set>
       <set comment="band 5">
        <r>  0.0099  0.0000  0.0000  0.0000  0.0000  0.0000  0.0000  0.0000  0.0000 </r>
        <r>  0.0099  0.0000  0.0000  0.0000  0.0000  0.0000  0.0000  0.0000  0.0000 </r>
       </set>
       <set comment="band 6">
        <r>  0.0000  0.0000  0.0113  0.0000  0.0000  0.0000  0.0000  0.0000  0.0000 </r>
        <r>  0.0000  0.0000  0.0113  0.0000  0.0000  0.0000  0.0000  0.0000  0.0000 </r>
       </set>
       <set comment="band 7">
        <r>  0.0010  0.0000  0.0000  0.0000  0.0000  0.0000  0.0000  0.0000  0.0000 </r>
        <r>  0.0010  0.0000  0.0000  0.0000  0.0000  0.0000  0.0000  0.0000  0.0000 </r>
       </set>
       <set comment="band 8">
        <r>  0.0000  0.0000  0.0082  0.0000  0.0000  0.0000  0.0000  0.0000  0.0000 </r>
        <r>  0.0000  0.0000  0.0082  0.0000  0.0000  0.0000  0.0000  0.0000  0.0000 </r>
       </set>
       <set comment="band 9">
        <r>  0.0038  0.0000  0.0000  0.0000  0.0000  0.0000  0.0000  0.0000  0.0000 </r>
        <r>  0.0038  0.0000  0.0000  0.0000  0.0000  0.0000  0.0000  0.0000  0.0000 </r>
       </set>
       <set comment="band 10">
        <r>  0.0000  0.0000  0.0127  0.0000  0.0000  0.0000  0.0000  0.0000  0.0000 </r>
        <r>  0.0000  0.0000  0.0127  0.0000  0.0000  0.0000  0.0000  0.0000  0.0000 </r>
       </set>
       <set comment="band 11">
        <r>  0.0055  0.0000  0.0000  0.0000  0.0000  0.0000  0.0000  0.0000  0.0000 </r>
        <r>  0.0055  0.0000  0.0000  0.0000  0.0000  0.0000  0.0000  0.0000  0.0000 </r>
       </set>
       <set comment="band 12">
        <r>  0.0001  0.0173  0.0000  0.2448  0.0000  0.0000  0.0000  0.0000  0.0000 </r>
        <r>  0.0001  0.0173  0.0000  0.2448  0.0000  0.0000  0.0000  0.0000  0.0000 </r>
       </set>
       <set comment="band 13">
        <r>  0.0001  0.2450  0.0000  0.0174  0.0000  0.0000  0.0000  0.0000  0.0000 </r>
        <r>  0.0001  0.2450  0.0000  0.0174  0.0000  0.0000  0.0000  0.0000  0.0000 </r>
       </set>
       <set comment="band 14">
        <r>  0.0000  0.0000  0.0175  0.0000  0.0000  0.0000  0.0000  0.0000  0.0000 </r>
        <r>  0.0000  0.0000  0.0175  0.0000  0.0000  0.0000  0.0000  0.0000  0.0000 </r>
       </set>
       <set comment="band 15">
        <r>  0.0061  0.0000  0.0000  0.0000  0.0000  0.0000  0.0000  0.0000  0.0000 </r>
        <r>  0.0061  0.0000  0.0000  0.0000  0.0000  0.0000  0.0000  0.0000  0.0000 </r>
       </set>
       <set comment="band 16">
        <r>  0.0000  0.0000  0.3898  0.0000  0.0000  0.0000  0.0000  0.0000  0.0000 </r>
        <r>  0.0000  0.0000  0.3898  0.0000  0.0000  0.0000  0.0000  0.0000  0.0000 </r>
       </set>
      </set>
     </set>
    </set>
   </array>
  </projected>
 </calculation>
 <structure name="finalpos" >
  <crystal>
   <varray name="basis" >
    <v>       2.46810000       0.00000000       0.00000000 </v>
    <v>      -1.23000000       2.13000000       0.00000000 </v>
    <v>       0.00000000       0.00000000      20.00000000 </v>
   </varray>
   <i name="volume">    105.14106000 </i>
   <varray name="rec_basis" >
    <v>       0.40516997       0.23397139       0.00000000 </v>
    <v>       0.00000000       0.46948357       0.00000000 </v>
    <v>       0.00000000       0.00000000       0.05000000 </v>
   </varray>
  </crystal>
  <varray name="positions" >
   <v>       0.33338056       0.66671353       0.50000000 </v>
   <v>       0.66661944       0.33328647       0.50000000 </v>
  </varray>
 </structure>
</modeling>
