       N       E                     dE             d eps       ncg     rms          rms(c)
DAV:   1     0.347856715656E+02    0.34786E+02   -0.37138E+03  1568   0.372E+02
DAV:   2    -0.186107079945E+02   -0.53396E+02   -0.50172E+02  2112   0.783E+01
DAV:   3    -0.197519111104E+02   -0.11412E+01   -0.11412E+01  2192   0.156E+01
DAV:   4    -0.197552048332E+02   -0.32937E-02   -0.32937E-02  2144   0.914E-01
DAV:   5    -0.197552119084E+02   -0.70752E-05   -0.70752E-05  2000   0.384E-02    0.636E+00
DAV:   6    -0.188215504595E+02    0.93366E+00   -0.91161E-01  2160   0.344E+00    0.375E+00
DAV:   7    -0.184605970422E+02    0.36095E+00   -0.11874E+00  2448   0.383E+00    0.943E-01
DAV:   8    -0.184522607363E+02    0.83363E-02   -0.74345E-03  2176   0.441E-01    0.108E-01
DAV:   9    -0.184495772804E+02    0.26835E-02   -0.17058E-03  2080   0.118E-01    0.800E-02
DAV:  10    -0.184480319025E+02    0.15454E-02   -0.21892E-03  2160   0.116E-01    0.376E-02
DAV:  11    -0.184487399919E+02   -0.70809E-03   -0.20801E-04  1968   0.426E-02    0.408E-02
DAV:  12    -0.184491754442E+02   -0.43545E-03   -0.43801E-05  1968   0.210E-02    0.975E-03
DAV:  13    -0.184500160809E+02   -0.84064E-03   -0.16287E-04  1840   0.252E-02    0.285E-03
DAV:  14    -0.184500891519E+02   -0.73071E-04   -0.28020E-06  2016   0.391E-03    0.188E-03
DAV:  15    -0.184501385797E+02   -0.49428E-04   -0.48315E-06  1600   0.394E-03    0.680E-04
DAV:  16    -0.184501467024E+02   -0.81227E-05   -0.47541E-07  1920   0.155E-03    0.526E-04
DAV:  17    -0.184501486486E+02   -0.19462E-05   -0.65992E-08  1888   0.681E-04    0.358E-04
DAV:  18    -0.184501514789E+02   -0.28303E-05   -0.20514E-08  1904   0.352E-04    0.849E-05
DAV:  19    -0.184501520396E+02   -0.56073E-06   -0.75283E-09  1888   0.207E-04
   1 F= -.18450152E+02 E0= -.18450152E+02  d E =-.184502E+02
       N       E                     dE             d eps       ncg     rms          rms(c)
DAV:   1    -0.184468992609E+02    0.32522E-02   -0.26569E-01  1984   0.270E+00    0.362E-01
DAV:   2    -0.184452206408E+02    0.16786E-02   -0.17595E-03  1952   0.211E-01    0.224E-01
DAV:   3    -0.184441120223E+02    0.11086E-02   -0.14080E-03  2048   0.146E-01    0.333E-02
DAV:   4    -0.184441341527E+02   -0.22130E-04   -0.19112E-05  1840   0.211E-02    0.217E-02
DAV:   5    -0.184441828878E+02   -0.48735E-04   -0.20589E-05  1840   0.159E-02    0.135E-02
DAV:   6    -0.184441842068E+02   -0.13190E-05   -0.15775E-07  1744   0.205E-03    0.833E-03
DAV:   7    -0.184442123596E+02   -0.28153E-04   -0.96625E-06  1872   0.713E-03    0.322E-03
DAV:   8    -0.184442152419E+02   -0.28822E-05   -0.32094E-07  2048   0.148E-03    0.373E-03
DAV:   9    -0.184442176136E+02   -0.23717E-05   -0.41632E-07  1920   0.190E-03    0.555E-04
DAV:  10    -0.184442185661E+02   -0.95251E-06   -0.50809E-08  1920   0.634E-04
   2 F= -.18444219E+02 E0= -.18444219E+02  d E =0.593347E-02
       N       E                     dE             d eps       ncg     rms          rms(c)
DAV:   1    -0.184528559442E+02   -0.86383E-02   -0.12932E-01  1952   0.190E+00    0.249E-01
DAV:   2    -0.184520604441E+02    0.79550E-03   -0.86494E-04  1872   0.150E-01    0.157E-01
DAV:   3    -0.184515440527E+02    0.51639E-03   -0.70196E-04  1936   0.104E-01    0.244E-02
DAV:   4    -0.184515467231E+02   -0.26704E-05   -0.88666E-06  1840   0.143E-02    0.143E-02
DAV:   5    -0.184515528727E+02   -0.61496E-05   -0.52648E-06  1968   0.867E-03    0.657E-03
DAV:   6    -0.184515557804E+02   -0.29076E-05   -0.60408E-08  2016   0.120E-03    0.405E-03
DAV:   7    -0.184515713984E+02   -0.15618E-04   -0.27930E-06  1920   0.378E-03    0.123E-03
DAV:   8    -0.184515763818E+02   -0.49834E-05   -0.15435E-07  2048   0.965E-04    0.185E-03
DAV:   9    -0.184515819335E+02   -0.55517E-05   -0.12036E-07  1808   0.983E-04    0.328E-04
DAV:  10    -0.184515847045E+02   -0.27710E-05   -0.45388E-08  1856   0.498E-04    0.238E-04
DAV:  11    -0.184515850047E+02   -0.30016E-06   -0.92660E-09  1888   0.201E-04
   3 F= -.18451585E+02 E0= -.18451585E+02  d E =-.143297E-02
