   2   2   1   0
  0.5257053E+02  0.2468100E-09  0.2459634E-09  0.2000000E-08  0.5000000E-15
  1.000000000000000E-004
  CAR 
 Graphene SCF                            
     16.20561244    -24.10688196 3000     -2.76101963      1.00000000
    -24.107  0.0000E+00  0.0000E+00
    -24.093  0.0000E+00  0.0000E+00
    -24.080  0.0000E+00  0.0000E+00
    -24.067  0.0000E+00  0.0000E+00
    -24.053  0.0000E+00  0.0000E+00
    -24.040  0.0000E+00  0.0000E+00
    -24.026  0.0000E+00  0.0000E+00
    -24.013  0.0000E+00  0.0000E+00
    -23.999  0.0000E+00  0.0000E+00
    -23.986  0.0000E+00  0.0000E+00
    -23.972  0.0000E+00  0.0000E+00
    -23.959  0.0000E+00  0.0000E+00
    -23.946  0.0000E+00  0.0000E+00
    -23.932  0.0000E+00  0.0000E+00
    -23.919  0.0000E+00  0.0000E+00
    -23.905  0.0000E+00  0.0000E+00
    -23.892  0.0000E+00  0.0000E+00
    -23.878  0.0000E+00  0.0000E+00
    -23.865  0.0000E+00  0.0000E+00
    -23.851  0.0000E+00  0.0000E+00
    -23.838  0.0000E+00  0.0000E+00
    -23.825  0.0000E+00  0.0000E+00
    -23.811  0.0000E+00  0.0000E+00
    -23.798  0.0000E+00  0.0000E+00
    -23.784  0.0000E+00  0.0000E+00
    -23.771  0.0000E+00  0.0000E+00
    -23.757  0.0000E+00  0.0000E+00
    -23.744  0.0000E+00  0.0000E+00
    -23.731  0.0000E+00  0.0000E+00
    -23.717  0.0000E+00  0.0000E+00
    -23.704  0.0000E+00  0.0000E+00
    -23.690  0.0000E+00  0.0000E+00
    -23.677  0.0000E+00  0.0000E+00
    -23.663  0.0000E+00  0.0000E+00
    -23.650  0.0000E+00  0.0000E+00
    -23.636  0.0000E+00  0.0000E+00
    -23.623  0.0000E+00  0.0000E+00
    -23.610  0.0000E+00  0.0000E+00
    -23.596  0.0000E+00  0.0000E+00
    -23.583  0.0000E+00  0.0000E+00
    -23.569  0.0000E+00  0.0000E+00
    -23.556  0.0000E+00  0.0000E+00
    -23.542  0.0000E+00  0.0000E+00
    -23.529  0.0000E+00  0.0000E+00
    -23.515  0.0000E+00  0.0000E+00
    -23.502  0.0000E+00  0.0000E+00
    -23.489  0.0000E+00  0.0000E+00
    -23.475  0.0000E+00  0.0000E+00
    -23.462  0.0000E+00  0.0000E+00
    -23.448  0.0000E+00  0.0000E+00
    -23.435  0.0000E+00  0.0000E+00
    -23.421  0.0000E+00  0.0000E+00
    -23.408  0.0000E+00  0.0000E+00
    -23.394  0.0000E+00  0.0000E+00
    -23.381  0.0000E+00  0.0000E+00
    -23.368  0.0000E+00  0.0000E+00
    -23.354  0.0000E+00  0.0000E+00
    -23.341  0.0000E+00  0.0000E+00
    -23.327  0.0000E+00  0.0000E+00
    -23.314  0.0000E+00  0.0000E+00
    -23.300  0.0000E+00  0.0000E+00
    -23.287  0.0000E+00  0.0000E+00
    -23.273  0.0000E+00  0.0000E+00
    -23.260  0.0000E+00  0.0000E+00
    -23.247  0.0000E+00  0.0000E+00
    -23.233  0.0000E+00  0.0000E+00
    -23.220  0.0000E+00  0.0000E+00
    -23.206  0.0000E+00  0.0000E+00
    -23.193  0.0000E+00  0.0000E+00
    -23.179  0.0000E+00  0.0000E+00
    -23.166  0.0000E+00  0.0000E+00
    -23.153  0.0000E+00  0.0000E+00
    -23.139  0.0000E+00  0.0000E+00
    -23.126  0.0000E+00  0.0000E+00
    -23.112  0.0000E+00  0.0000E+00
    -23.099  0.0000E+00  0.0000E+00
    -23.085  0.0000E+00  0.0000E+00
    -23.072  0.0000E+00  0.0000E+00
    -23.058  0.0000E+00  0.0000E+00
    -23.045  0.0000E+00  0.0000E+00
    -23.032  0.0000E+00  0.0000E+00
    -23.018  0.0000E+00  0.0000E+00
    -23.005  0.0000E+00  0.0000E+00
    -22.991  0.0000E+00  0.0000E+00
    -22.978  0.0000E+00  0.0000E+00
    -22.964  0.0000E+00  0.0000E+00
    -22.951  0.0000E+00  0.0000E+00
    -22.937  0.0000E+00  0.0000E+00
    -22.924  0.0000E+00  0.0000E+00
    -22.911  0.0000E+00  0.0000E+00
    -22.897  0.0000E+00  0.0000E+00
    -22.884  0.0000E+00  0.0000E+00
    -22.870  0.0000E+00  0.0000E+00
    -22.857  0.0000E+00  0.0000E+00
    -22.843  0.0000E+00  0.0000E+00
    -22.830  0.0000E+00  0.0000E+00
    -22.816  0.0000E+00  0.0000E+00
    -22.803  0.0000E+00  0.0000E+00
    -22.790  0.0000E+00  0.0000E+00
    -22.776  0.0000E+00  0.0000E+00
    -22.763  0.0000E+00  0.0000E+00
    -22.749  0.0000E+00  0.0000E+00
    -22.736  0.0000E+00  0.0000E+00
    -22.722  0.0000E+00  0.0000E+00
    -22.709  0.0000E+00  0.0000E+00
    -22.695  0.0000E+00  0.0000E+00
    -22.682  0.0000E+00  0.0000E+00
    -22.669  0.0000E+00  0.0000E+00
    -22.655  0.0000E+00  0.0000E+00
    -22.642  0.0000E+00  0.0000E+00
    -22.628  0.0000E+00  0.0000E+00
    -22.615  0.0000E+00  0.0000E+00
    -22.601  0.0000E+00  0.0000E+00
    -22.588  0.0000E+00  0.0000E+00
    -22.574  0.0000E+00  0.0000E+00
    -22.561  0.0000E+00  0.0000E+00
    -22.548  0.0000E+00  0.0000E+00
    -22.534  0.0000E+00  0.0000E+00
    -22.521  0.0000E+00  0.0000E+00
    -22.507  0.0000E+00  0.0000E+00
    -22.494  0.0000E+00  0.0000E+00
    -22.480  0.0000E+00  0.0000E+00
    -22.467  0.0000E+00  0.0000E+00
    -22.454  0.0000E+00  0.0000E+00
    -22.440  0.0000E+00  0.0000E+00
    -22.427  0.0000E+00  0.0000E+00
    -22.413  0.0000E+00  0.0000E+00
    -22.400  0.0000E+00  0.0000E+00
    -22.386  0.0000E+00  0.0000E+00
    -22.373  0.0000E+00  0.0000E+00
    -22.359  0.0000E+00  0.0000E+00
    -22.346  0.0000E+00  0.0000E+00
    -22.333  0.0000E+00  0.0000E+00
    -22.319  0.0000E+00  0.0000E+00
    -22.306  0.0000E+00  0.0000E+00
    -22.292  0.0000E+00  0.0000E+00
    -22.279  0.0000E+00  0.0000E+00
    -22.265  0.4415E-01  0.2023E-03
    -22.252  0.1089E+00  0.1231E-02
    -22.238  0.1736E+00  0.3130E-02
    -22.225  0.2384E+00  0.5899E-02
    -22.212  0.3031E+00  0.9539E-02
    -22.198  0.3679E+00  0.1405E-01
    -22.185  0.4326E+00  0.1943E-01
    -22.171  0.4974E+00  0.2568E-01
    -22.158  0.2585E+00  0.2961E-01
    -22.144  0.2639E+00  0.3312E-01
    -22.131  0.2693E+00  0.3670E-01
    -22.117  0.2748E+00  0.4036E-01
    -22.104  0.2802E+00  0.4409E-01
    -22.091  0.2856E+00  0.4789E-01
    -22.077  0.2910E+00  0.5177E-01
    -22.064  0.2965E+00  0.5571E-01
    -22.050  0.3019E+00  0.5974E-01
    -22.037  0.3073E+00  0.6383E-01
    -22.023  0.3127E+00  0.6800E-01
    -22.010  0.3182E+00  0.7224E-01
    -21.996  0.3236E+00  0.7655E-01
    -21.983  0.3290E+00  0.8094E-01
    -21.970  0.3344E+00  0.8540E-01
    -21.956  0.3372E+00  0.8992E-01
    -21.943  0.3305E+00  0.9441E-01
    -21.929  0.3239E+00  0.9881E-01
    -21.916  0.3172E+00  0.1031E+00
    -21.902  0.3105E+00  0.1073E+00
    -21.889  0.3039E+00  0.1115E+00
    -21.876  0.2972E+00  0.1155E+00
    -21.862  0.2905E+00  0.1195E+00
    -21.849  0.2875E+00  0.1233E+00
    -21.835  0.2894E+00  0.1272E+00
    -21.822  0.2913E+00  0.1311E+00
    -21.808  0.2933E+00  0.1350E+00
    -21.795  0.2952E+00  0.1390E+00
    -21.781  0.2971E+00  0.1430E+00
    -21.768  0.2990E+00  0.1470E+00
    -21.755  0.3010E+00  0.1510E+00
    -21.741  0.3029E+00  0.1551E+00
    -21.728  0.3048E+00  0.1592E+00
    -21.714  0.3067E+00  0.1633E+00
    -21.701  0.3086E+00  0.1674E+00
    -21.687  0.3106E+00  0.1716E+00
    -21.674  0.3125E+00  0.1757E+00
    -21.660  0.3144E+00  0.1800E+00
    -21.647  0.3163E+00  0.1842E+00
    -21.634  0.3183E+00  0.1885E+00
    -21.620  0.3202E+00  0.1928E+00
    -21.607  0.3221E+00  0.1971E+00
    -21.593  0.3240E+00  0.2014E+00
    -21.580  0.3259E+00  0.2058E+00
    -21.566  0.3279E+00  0.2102E+00
    -21.553  0.3298E+00  0.2146E+00
    -21.539  0.3154E+00  0.2190E+00
    -21.526  0.3063E+00  0.2231E+00
    -21.513  0.3059E+00  0.2273E+00
    -21.499  0.3055E+00  0.2314E+00
    -21.486  0.3052E+00  0.2355E+00
    -21.472  0.3048E+00  0.2396E+00
    -21.459  0.3044E+00  0.2437E+00
    -21.445  0.3040E+00  0.2478E+00
    -21.432  0.3037E+00  0.2518E+00
    -21.418  0.3033E+00  0.2559E+00
    -21.405  0.3029E+00  0.2600E+00
    -21.392  0.3025E+00  0.2641E+00
    -21.378  0.3022E+00  0.2681E+00
    -21.365  0.3018E+00  0.2722E+00
    -21.351  0.3014E+00  0.2762E+00
    -21.338  0.3010E+00  0.2803E+00
    -21.324  0.3014E+00  0.2843E+00
    -21.311  0.3024E+00  0.2884E+00
    -21.298  0.3034E+00  0.2925E+00
    -21.284  0.3044E+00  0.2965E+00
    -21.271  0.3054E+00  0.3006E+00
    -21.257  0.3064E+00  0.3048E+00
    -21.244  0.3074E+00  0.3089E+00
    -21.230  0.3084E+00  0.3130E+00
    -21.217  0.3094E+00  0.3172E+00
    -21.203  0.3104E+00  0.3213E+00
    -21.190  0.3114E+00  0.3255E+00
    -21.177  0.3124E+00  0.3297E+00
    -21.163  0.3134E+00  0.3339E+00
    -21.150  0.3144E+00  0.3381E+00
    -21.136  0.3153E+00  0.3424E+00
    -21.123  0.3163E+00  0.3466E+00
    -21.109  0.3173E+00  0.3509E+00
    -21.096  0.3183E+00  0.3551E+00
    -21.082  0.3193E+00  0.3594E+00
    -21.069  0.3203E+00  0.3637E+00
    -21.056  0.3213E+00  0.3680E+00
    -21.042  0.3223E+00  0.3724E+00
    -21.029  0.3233E+00  0.3767E+00
    -21.015  0.3230E+00  0.3811E+00
    -21.002  0.3206E+00  0.3854E+00
    -20.988  0.3182E+00  0.3897E+00
    -20.975  0.3158E+00  0.3939E+00
    -20.961  0.3134E+00  0.3982E+00
    -20.948  0.3110E+00  0.4024E+00
    -20.935  0.3086E+00  0.4065E+00
    -20.921  0.3062E+00  0.4107E+00
    -20.908  0.3055E+00  0.4148E+00
    -20.894  0.3057E+00  0.4189E+00
    -20.881  0.3060E+00  0.4230E+00
    -20.867  0.3062E+00  0.4271E+00
    -20.854  0.3064E+00  0.4312E+00
    -20.840  0.3066E+00  0.4353E+00
    -20.827  0.3068E+00  0.4395E+00
    -20.814  0.3071E+00  0.4436E+00
    -20.800  0.3073E+00  0.4477E+00
    -20.787  0.3075E+00  0.4518E+00
    -20.773  0.3077E+00  0.4560E+00
    -20.760  0.3079E+00  0.4601E+00
    -20.746  0.3082E+00  0.4643E+00
    -20.733  0.3084E+00  0.4684E+00
    -20.720  0.3086E+00  0.4725E+00
    -20.706  0.3088E+00  0.4767E+00
    -20.693  0.3091E+00  0.4809E+00
    -20.679  0.3093E+00  0.4850E+00
    -20.666  0.3095E+00  0.4892E+00
    -20.652  0.3097E+00  0.4933E+00
    -20.639  0.3099E+00  0.4975E+00
    -20.625  0.3102E+00  0.5017E+00
    -20.612  0.3104E+00  0.5058E+00
    -20.599  0.3108E+00  0.5100E+00
    -20.585  0.3115E+00  0.5142E+00
    -20.572  0.3121E+00  0.5184E+00
    -20.558  0.3127E+00  0.5226E+00
    -20.545  0.3133E+00  0.5268E+00
    -20.531  0.3139E+00  0.5310E+00
    -20.518  0.3146E+00  0.5352E+00
    -20.504  0.3152E+00  0.5395E+00
    -20.491  0.3158E+00  0.5437E+00
    -20.478  0.3164E+00  0.5479E+00
    -20.464  0.3170E+00  0.5522E+00
    -20.451  0.3177E+00  0.5565E+00
    -20.437  0.3183E+00  0.5607E+00
    -20.424  0.3189E+00  0.5650E+00
    -20.410  0.3195E+00  0.5693E+00
    -20.397  0.3201E+00  0.5736E+00
    -20.383  0.3208E+00  0.5779E+00
    -20.370  0.3214E+00  0.5822E+00
    -20.357  0.3220E+00  0.5866E+00
    -20.343  0.3226E+00  0.5909E+00
    -20.330  0.3232E+00  0.5952E+00
    -20.316  0.3238E+00  0.5996E+00
    -20.303  0.3216E+00  0.6039E+00
    -20.289  0.3161E+00  0.6082E+00
    -20.276  0.3157E+00  0.6125E+00
    -20.262  0.3153E+00  0.6167E+00
    -20.249  0.3150E+00  0.6210E+00
    -20.236  0.3146E+00  0.6252E+00
    -20.222  0.3142E+00  0.6294E+00
    -20.209  0.3139E+00  0.6336E+00
    -20.195  0.3135E+00  0.6379E+00
    -20.182  0.3131E+00  0.6421E+00
    -20.168  0.3128E+00  0.6463E+00
    -20.155  0.3124E+00  0.6505E+00
    -20.141  0.3120E+00  0.6547E+00
    -20.128  0.3117E+00  0.6589E+00
    -20.115  0.3113E+00  0.6630E+00
    -20.101  0.3109E+00  0.6672E+00
    -20.088  0.3109E+00  0.6714E+00
    -20.074  0.3111E+00  0.6756E+00
    -20.061  0.3114E+00  0.6798E+00
    -20.047  0.3117E+00  0.6840E+00
    -20.034  0.3120E+00  0.6882E+00
    -20.021  0.3123E+00  0.6923E+00
    -20.007  0.3126E+00  0.6965E+00
    -19.994  0.3128E+00  0.7007E+00
    -19.980  0.3131E+00  0.7050E+00
    -19.967  0.3134E+00  0.7092E+00
    -19.953  0.3137E+00  0.7134E+00
    -19.940  0.3140E+00  0.7176E+00
    -19.926  0.3143E+00  0.7218E+00
    -19.913  0.3146E+00  0.7261E+00
    -19.900  0.3149E+00  0.7303E+00
    -19.886  0.3152E+00  0.7345E+00
    -19.873  0.3154E+00  0.7388E+00
    -19.859  0.3157E+00  0.7430E+00
    -19.846  0.3160E+00  0.7472E+00
    -19.832  0.3163E+00  0.7515E+00
    -19.819  0.3166E+00  0.7557E+00
    -19.805  0.3169E+00  0.7600E+00
    -19.792  0.3172E+00  0.7643E+00
    -19.779  0.3175E+00  0.7685E+00
    -19.765  0.3177E+00  0.7728E+00
    -19.752  0.3180E+00  0.7771E+00
    -19.738  0.3183E+00  0.7813E+00
    -19.725  0.3186E+00  0.7856E+00
    -19.711  0.3189E+00  0.7899E+00
    -19.698  0.3192E+00  0.7942E+00
    -19.684  0.3195E+00  0.7985E+00
    -19.671  0.3199E+00  0.8028E+00
    -19.658  0.3204E+00  0.8071E+00
    -19.644  0.3208E+00  0.8114E+00
    -19.631  0.3213E+00  0.8157E+00
    -19.617  0.3217E+00  0.8200E+00
    -19.604  0.3221E+00  0.8244E+00
    -19.590  0.3226E+00  0.8287E+00
    -19.577  0.3230E+00  0.8330E+00
    -19.563  0.3235E+00  0.8374E+00
    -19.550  0.3239E+00  0.8417E+00
    -19.537  0.3244E+00  0.8461E+00
    -19.523  0.3248E+00  0.8505E+00
    -19.510  0.3253E+00  0.8548E+00
    -19.496  0.3257E+00  0.8592E+00
    -19.483  0.3257E+00  0.8636E+00
    -19.469  0.3251E+00  0.8680E+00
    -19.456  0.3241E+00  0.8723E+00
    -19.443  0.3232E+00  0.8767E+00
    -19.429  0.3222E+00  0.8810E+00
    -19.416  0.3213E+00  0.8853E+00
    -19.402  0.3204E+00  0.8896E+00
    -19.389  0.3195E+00  0.8939E+00
    -19.375  0.3191E+00  0.8982E+00
    -19.362  0.3191E+00  0.9025E+00
    -19.348  0.3192E+00  0.9068E+00
    -19.335  0.3192E+00  0.9111E+00
    -19.322  0.3193E+00  0.9154E+00
    -19.308  0.3193E+00  0.9197E+00
    -19.295  0.3194E+00  0.9240E+00
    -19.281  0.3194E+00  0.9283E+00
    -19.268  0.3195E+00  0.9326E+00
    -19.254  0.3196E+00  0.9369E+00
    -19.241  0.3196E+00  0.9412E+00
    -19.227  0.3197E+00  0.9455E+00
    -19.214  0.3197E+00  0.9498E+00
    -19.201  0.3198E+00  0.9541E+00
    -19.187  0.3198E+00  0.9584E+00
    -19.174  0.3199E+00  0.9627E+00
    -19.160  0.3199E+00  0.9670E+00
    -19.147  0.3200E+00  0.9713E+00
    -19.133  0.3201E+00  0.9756E+00
    -19.120  0.3201E+00  0.9799E+00
    -19.106  0.3202E+00  0.9842E+00
    -19.093  0.3202E+00  0.9885E+00
    -19.080  0.3204E+00  0.9928E+00
    -19.066  0.3206E+00  0.9971E+00
    -19.053  0.3209E+00  0.1001E+01
    -19.039  0.3212E+00  0.1006E+01
    -19.026  0.3215E+00  0.1010E+01
    -19.012  0.3219E+00  0.1014E+01
    -18.999  0.3222E+00  0.1019E+01
    -18.985  0.3225E+00  0.1023E+01
    -18.972  0.3228E+00  0.1027E+01
    -18.959  0.3231E+00  0.1032E+01
    -18.945  0.3234E+00  0.1036E+01
    -18.932  0.3237E+00  0.1040E+01
    -18.918  0.3241E+00  0.1045E+01
    -18.905  0.3244E+00  0.1049E+01
    -18.891  0.3247E+00  0.1053E+01
    -18.878  0.3250E+00  0.1058E+01
    -18.865  0.3253E+00  0.1062E+01
    -18.851  0.3256E+00  0.1067E+01
    -18.838  0.3259E+00  0.1071E+01
    -18.824  0.3262E+00  0.1075E+01
    -18.811  0.3266E+00  0.1080E+01
    -18.797  0.3269E+00  0.1084E+01
    -18.784  0.3272E+00  0.1089E+01
    -18.770  0.3275E+00  0.1093E+01
    -18.757  0.3278E+00  0.1097E+01
    -18.744  0.3281E+00  0.1102E+01
    -18.730  0.3284E+00  0.1106E+01
    -18.717  0.3287E+00  0.1111E+01
    -18.703  0.3291E+00  0.1115E+01
    -18.690  0.3294E+00  0.1119E+01
    -18.676  0.3297E+00  0.1124E+01
    -18.663  0.3300E+00  0.1128E+01
    -18.649  0.3303E+00  0.1133E+01
    -18.636  0.3306E+00  0.1137E+01
    -18.623  0.3309E+00  0.1142E+01
    -18.609  0.3312E+00  0.1146E+01
    -18.596  0.3316E+00  0.1150E+01
    -18.582  0.3319E+00  0.1155E+01
    -18.569  0.3323E+00  0.1159E+01
    -18.555  0.3327E+00  0.1164E+01
    -18.542  0.3332E+00  0.1168E+01
    -18.528  0.3336E+00  0.1173E+01
    -18.515  0.3340E+00  0.1177E+01
    -18.502  0.3338E+00  0.1182E+01
    -18.488  0.3334E+00  0.1186E+01
    -18.475  0.3327E+00  0.1191E+01
    -18.461  0.3319E+00  0.1195E+01
    -18.448  0.3320E+00  0.1200E+01
    -18.434  0.3320E+00  0.1204E+01
    -18.421  0.3321E+00  0.1209E+01
    -18.407  0.3322E+00  0.1213E+01
    -18.394  0.3322E+00  0.1218E+01
    -18.381  0.3323E+00  0.1222E+01
    -18.367  0.3324E+00  0.1226E+01
    -18.354  0.3324E+00  0.1231E+01
    -18.340  0.3325E+00  0.1235E+01
    -18.327  0.3326E+00  0.1240E+01
    -18.313  0.3326E+00  0.1244E+01
    -18.300  0.3327E+00  0.1249E+01
    -18.287  0.3330E+00  0.1253E+01
    -18.273  0.3333E+00  0.1258E+01
    -18.260  0.3337E+00  0.1262E+01
    -18.246  0.3341E+00  0.1267E+01
    -18.233  0.3345E+00  0.1271E+01
    -18.219  0.3349E+00  0.1276E+01
    -18.206  0.3353E+00  0.1280E+01
    -18.192  0.3357E+00  0.1285E+01
    -18.179  0.3361E+00  0.1289E+01
    -18.166  0.3365E+00  0.1294E+01
    -18.152  0.3370E+00  0.1298E+01
    -18.139  0.3374E+00  0.1303E+01
    -18.125  0.3378E+00  0.1307E+01
    -18.112  0.3382E+00  0.1312E+01
    -18.098  0.3386E+00  0.1316E+01
    -18.085  0.3390E+00  0.1321E+01
    -18.071  0.3394E+00  0.1326E+01
    -18.058  0.3398E+00  0.1330E+01
    -18.045  0.3402E+00  0.1335E+01
    -18.031  0.3406E+00  0.1339E+01
    -18.018  0.3410E+00  0.1344E+01
    -18.004  0.3414E+00  0.1348E+01
    -17.991  0.3418E+00  0.1353E+01
    -17.977  0.3422E+00  0.1358E+01
    -17.964  0.3426E+00  0.1362E+01
    -17.950  0.3430E+00  0.1367E+01
    -17.937  0.3434E+00  0.1372E+01
    -17.924  0.3440E+00  0.1376E+01
    -17.910  0.3448E+00  0.1381E+01
    -17.897  0.3459E+00  0.1385E+01
    -17.883  0.3472E+00  0.1390E+01
    -17.870  0.3486E+00  0.1395E+01
    -17.856  0.3501E+00  0.1399E+01
    -17.843  0.3515E+00  0.1404E+01
    -17.829  0.3529E+00  0.1409E+01
    -17.816  0.3544E+00  0.1414E+01
    -17.803  0.3558E+00  0.1418E+01
    -17.789  0.3572E+00  0.1423E+01
    -17.776  0.3587E+00  0.1428E+01
    -17.762  0.3601E+00  0.1433E+01
    -17.749  0.3615E+00  0.1438E+01
    -17.735  0.3630E+00  0.1443E+01
    -17.722  0.3644E+00  0.1447E+01
    -17.709  0.3658E+00  0.1452E+01
    -17.695  0.3673E+00  0.1457E+01
    -17.682  0.3687E+00  0.1462E+01
    -17.668  0.3701E+00  0.1467E+01
    -17.655  0.3716E+00  0.1472E+01
    -17.641  0.3730E+00  0.1477E+01
    -17.628  0.3744E+00  0.1482E+01
    -17.614  0.3759E+00  0.1487E+01
    -17.601  0.3773E+00  0.1492E+01
    -17.588  0.3787E+00  0.1497E+01
    -17.574  0.3802E+00  0.1502E+01
    -17.561  0.3816E+00  0.1508E+01
    -17.547  0.3830E+00  0.1513E+01
    -17.534  0.3845E+00  0.1518E+01
    -17.520  0.3859E+00  0.1523E+01
    -17.507  0.3873E+00  0.1528E+01
    -17.493  0.3888E+00  0.1533E+01
    -17.480  0.3902E+00  0.1539E+01
    -17.467  0.3916E+00  0.1544E+01
    -17.453  0.3931E+00  0.1549E+01
    -17.440  0.3945E+00  0.1555E+01
    -17.426  0.3960E+00  0.1560E+01
    -17.413  0.3975E+00  0.1565E+01
    -17.399  0.4396E+00  0.1571E+01
    -17.386  0.4384E+00  0.1577E+01
    -17.372  0.4764E+00  0.1583E+01
    -17.359  0.4726E+00  0.1590E+01
    -17.346  0.5075E+00  0.1596E+01
    -17.332  0.5020E+00  0.1603E+01
    -17.319  0.4968E+00  0.1610E+01
    -17.305  0.4921E+00  0.1616E+01
    -17.292  0.4873E+00  0.1623E+01
    -17.278  0.4825E+00  0.1630E+01
    -17.265  0.4778E+00  0.1636E+01
    -17.251  0.4730E+00  0.1642E+01
    -17.238  0.4682E+00  0.1649E+01
    -17.225  0.4635E+00  0.1655E+01
    -17.211  0.4587E+00  0.1661E+01
    -17.198  0.4539E+00  0.1667E+01
    -17.184  0.4492E+00  0.1673E+01
    -17.171  0.4444E+00  0.1679E+01
    -17.157  0.4396E+00  0.1685E+01
    -17.144  0.4349E+00  0.1691E+01
    -17.130  0.4817E+00  0.1697E+01
    -17.117  0.5613E+00  0.1704E+01
    -17.104  0.6221E+00  0.1712E+01
    -17.090  0.6421E+00  0.1721E+01
    -17.077  0.7291E+00  0.1730E+01
    -17.063  0.6829E+00  0.1739E+01
    -17.050  0.6315E+00  0.1748E+01
    -17.036  0.5802E+00  0.1756E+01
    -17.023  0.5288E+00  0.1764E+01
    -17.010  0.4775E+00  0.1771E+01
    -16.996  0.4261E+00  0.1777E+01
    -16.983  0.3813E+00  0.1782E+01
    -16.969  0.3480E+00  0.1787E+01
    -16.956  0.3147E+00  0.1791E+01
    -16.942  0.2952E+00  0.1796E+01
    -16.929  0.2780E+00  0.1799E+01
    -16.915  0.2626E+00  0.1803E+01
    -16.902  0.2597E+00  0.1807E+01
    -16.889  0.2568E+00  0.1810E+01
    -16.875  0.2539E+00  0.1813E+01
    -16.862  0.2510E+00  0.1817E+01
    -16.848  0.2481E+00  0.1820E+01
    -16.835  0.2452E+00  0.1824E+01
    -16.821  0.2423E+00  0.1827E+01
    -16.808  0.2394E+00  0.1830E+01
    -16.794  0.2365E+00  0.1833E+01
    -16.781  0.2336E+00  0.1836E+01
    -16.768  0.2307E+00  0.1840E+01
    -16.754  0.2278E+00  0.1843E+01
    -16.741  0.2249E+00  0.1846E+01
    -16.727  0.2220E+00  0.1849E+01
    -16.714  0.2191E+00  0.1852E+01
    -16.700  0.2162E+00  0.1855E+01
    -16.687  0.2133E+00  0.1857E+01
    -16.673  0.2104E+00  0.1860E+01
    -16.660  0.2075E+00  0.1863E+01
    -16.647  0.2046E+00  0.1866E+01
    -16.633  0.2017E+00  0.1869E+01
    -16.620  0.1988E+00  0.1871E+01
    -16.606  0.1959E+00  0.1874E+01
    -16.593  0.1930E+00  0.1877E+01
    -16.579  0.1901E+00  0.1879E+01
    -16.566  0.1872E+00  0.1882E+01
    -16.552  0.1843E+00  0.1884E+01
    -16.539  0.1814E+00  0.1887E+01
    -16.526  0.1785E+00  0.1889E+01
    -16.512  0.1756E+00  0.1891E+01
    -16.499  0.1727E+00  0.1894E+01
    -16.485  0.1698E+00  0.1896E+01
    -16.472  0.1669E+00  0.1898E+01
    -16.458  0.1640E+00  0.1901E+01
    -16.445  0.1614E+00  0.1903E+01
    -16.432  0.1692E+00  0.1905E+01
    -16.418  0.1771E+00  0.1907E+01
    -16.405  0.1941E+00  0.1910E+01
    -16.391  0.2156E+00  0.1912E+01
    -16.378  0.2381E+00  0.1916E+01
    -16.364  0.2773E+00  0.1919E+01
    -16.351  0.3165E+00  0.1923E+01
    -16.337  0.3557E+00  0.1928E+01
    -16.324  0.3949E+00  0.1933E+01
    -16.311  0.3637E+00  0.1938E+01
    -16.297  0.2941E+00  0.1942E+01
    -16.284  0.2748E+00  0.1946E+01
    -16.270  0.1641E+00  0.1949E+01
    -16.257  0.1116E+00  0.1951E+01
    -16.243  0.1099E+00  0.1952E+01
    -16.230  0.1082E+00  0.1954E+01
    -16.216  0.1065E+00  0.1955E+01
    -16.203  0.1048E+00  0.1956E+01
    -16.190  0.1031E+00  0.1958E+01
    -16.176  0.1014E+00  0.1959E+01
    -16.163  0.9971E-01  0.1961E+01
    -16.149  0.9801E-01  0.1962E+01
    -16.136  0.9632E-01  0.1963E+01
    -16.122  0.9463E-01  0.1964E+01
    -16.109  0.9293E-01  0.1966E+01
    -16.095  0.9124E-01  0.1967E+01
    -16.082  0.8955E-01  0.1968E+01
    -16.069  0.8785E-01  0.1969E+01
    -16.055  0.8616E-01  0.1971E+01
    -16.042  0.8446E-01  0.1972E+01
    -16.028  0.8277E-01  0.1973E+01
    -16.015  0.8108E-01  0.1974E+01
    -16.001  0.7938E-01  0.1975E+01
    -15.988  0.7769E-01  0.1976E+01
    -15.974  0.7600E-01  0.1977E+01
    -15.961  0.7430E-01  0.1978E+01
    -15.948  0.7261E-01  0.1979E+01
    -15.934  0.7091E-01  0.1980E+01
    -15.921  0.7021E-01  0.1981E+01
    -15.907  0.7765E-01  0.1982E+01
    -15.894  0.9054E-01  0.1983E+01
    -15.880  0.1034E+00  0.1984E+01
    -15.867  0.1163E+00  0.1986E+01
    -15.854  0.1292E+00  0.1988E+01
    -15.840  0.1421E+00  0.1989E+01
    -15.827  0.1550E+00  0.1991E+01
    -15.813  0.1679E+00  0.1994E+01
    -15.800  0.1808E+00  0.1996E+01
    -15.786  0.1937E+00  0.1998E+01
    -15.773  0.2065E+00  0.2001E+01
    -15.759  0.2194E+00  0.2004E+01
    -15.746  0.2323E+00  0.2007E+01
    -15.733  0.2452E+00  0.2010E+01
    -15.719  0.2581E+00  0.2014E+01
    -15.706  0.2710E+00  0.2017E+01
    -15.692  0.2839E+00  0.2021E+01
    -15.679  0.2968E+00  0.2025E+01
    -15.665  0.3097E+00  0.2029E+01
    -15.652  0.3226E+00  0.2033E+01
    -15.638  0.3354E+00  0.2037E+01
    -15.625  0.3483E+00  0.2042E+01
    -15.612  0.3612E+00  0.2047E+01
    -15.598  0.3741E+00  0.2052E+01
    -15.585  0.3317E+00  0.2057E+01
    -15.571  0.2315E+00  0.2060E+01
    -15.558  0.2336E+00  0.2064E+01
    -15.544  0.2358E+00  0.2067E+01
    -15.531  0.2380E+00  0.2070E+01
    -15.517  0.2401E+00  0.2073E+01
    -15.504  0.2423E+00  0.2076E+01
    -15.491  0.2445E+00  0.2080E+01
    -15.477  0.2466E+00  0.2083E+01
    -15.464  0.2488E+00  0.2086E+01
    -15.450  0.2510E+00  0.2090E+01
    -15.437  0.2563E+00  0.2093E+01
    -15.423  0.2899E+00  0.2097E+01
    -15.410  0.3657E+00  0.2101E+01
    -15.396  0.4708E+00  0.2107E+01
    -15.383  0.5760E+00  0.2114E+01
    -15.370  0.6814E+00  0.2122E+01
    -15.356  0.7882E+00  0.2132E+01
    -15.343  0.8951E+00  0.2143E+01
    -15.329  0.5127E+00  0.2154E+01
    -15.316  0.3173E+00  0.2158E+01
    -15.302  0.3199E+00  0.2163E+01
    -15.289  0.3278E+00  0.2167E+01
    -15.276  0.3358E+00  0.2171E+01
    -15.262  0.3437E+00  0.2176E+01
    -15.249  0.3517E+00  0.2181E+01
    -15.235  0.3596E+00  0.2186E+01
    -15.222  0.3676E+00  0.2190E+01
    -15.208  0.3755E+00  0.2195E+01
    -15.195  0.3835E+00  0.2200E+01
    -15.181  0.3914E+00  0.2206E+01
    -15.168  0.3994E+00  0.2211E+01
    -15.155  0.4073E+00  0.2216E+01
    -15.141  0.4153E+00  0.2222E+01
    -15.128  0.4232E+00  0.2228E+01
    -15.114  0.4312E+00  0.2233E+01
    -15.101  0.4391E+00  0.2239E+01
    -15.087  0.4471E+00  0.2245E+01
    -15.074  0.4550E+00  0.2251E+01
    -15.060  0.4630E+00  0.2257E+01
    -15.047  0.4709E+00  0.2264E+01
    -15.034  0.4789E+00  0.2270E+01
    -15.020  0.4868E+00  0.2277E+01
    -15.007  0.4948E+00  0.2283E+01
    -14.993  0.5027E+00  0.2290E+01
    -14.980  0.5107E+00  0.2297E+01
    -14.966  0.5186E+00  0.2304E+01
    -14.953  0.5266E+00  0.2311E+01
    -14.939  0.5345E+00  0.2318E+01
    -14.926  0.5425E+00  0.2325E+01
    -14.913  0.5504E+00  0.2332E+01
    -14.899  0.5584E+00  0.2340E+01
    -14.886  0.5663E+00  0.2347E+01
    -14.872  0.5743E+00  0.2355E+01
    -14.859  0.5822E+00  0.2363E+01
    -14.845  0.5902E+00  0.2371E+01
    -14.832  0.5981E+00  0.2379E+01
    -14.818  0.6061E+00  0.2387E+01
    -14.805  0.5643E+00  0.2395E+01
    -14.792  0.5083E+00  0.2402E+01
    -14.778  0.4361E+00  0.2408E+01
    -14.765  0.3799E+00  0.2414E+01
    -14.751  0.3786E+00  0.2419E+01
    -14.738  0.3773E+00  0.2424E+01
    -14.724  0.3761E+00  0.2429E+01
    -14.711  0.3748E+00  0.2434E+01
    -14.697  0.3735E+00  0.2439E+01
    -14.684  0.3722E+00  0.2444E+01
    -14.671  0.3709E+00  0.2449E+01
    -14.657  0.3696E+00  0.2454E+01
    -14.644  0.3683E+00  0.2459E+01
    -14.630  0.3670E+00  0.2464E+01
    -14.617  0.3657E+00  0.2469E+01
    -14.603  0.3644E+00  0.2474E+01
    -14.590  0.3632E+00  0.2479E+01
    -14.577  0.3619E+00  0.2483E+01
    -14.563  0.3606E+00  0.2488E+01
    -14.550  0.3593E+00  0.2493E+01
    -14.536  0.3580E+00  0.2498E+01
    -14.523  0.3567E+00  0.2503E+01
    -14.509  0.3554E+00  0.2508E+01
    -14.496  0.3541E+00  0.2512E+01
    -14.482  0.3528E+00  0.2517E+01
    -14.469  0.3515E+00  0.2522E+01
    -14.456  0.3503E+00  0.2527E+01
    -14.442  0.3490E+00  0.2531E+01
    -14.429  0.3477E+00  0.2536E+01
    -14.415  0.3464E+00  0.2541E+01
    -14.402  0.3451E+00  0.2545E+01
    -14.388  0.3438E+00  0.2550E+01
    -14.375  0.3425E+00  0.2554E+01
    -14.361  0.3412E+00  0.2559E+01
    -14.348  0.3398E+00  0.2564E+01
    -14.335  0.3385E+00  0.2568E+01
    -14.321  0.3371E+00  0.2573E+01
    -14.308  0.3358E+00  0.2577E+01
    -14.294  0.3344E+00  0.2582E+01
    -14.281  0.3331E+00  0.2586E+01
    -14.267  0.3317E+00  0.2591E+01
    -14.254  0.3304E+00  0.2595E+01
    -14.240  0.3290E+00  0.2600E+01
    -14.227  0.3277E+00  0.2604E+01
    -14.214  0.3263E+00  0.2608E+01
    -14.200  0.3249E+00  0.2613E+01
    -14.187  0.3236E+00  0.2617E+01
    -14.173  0.3222E+00  0.2621E+01
    -14.160  0.3209E+00  0.2626E+01
    -14.146  0.3195E+00  0.2630E+01
    -14.133  0.3182E+00  0.2634E+01
    -14.119  0.3168E+00  0.2639E+01
    -14.106  0.3155E+00  0.2643E+01
    -14.093  0.3141E+00  0.2647E+01
    -14.079  0.3128E+00  0.2651E+01
    -14.066  0.3114E+00  0.2656E+01
    -14.052  0.3101E+00  0.2660E+01
    -14.039  0.3088E+00  0.2664E+01
    -14.025  0.3075E+00  0.2668E+01
    -14.012  0.3062E+00  0.2672E+01
    -13.999  0.3048E+00  0.2676E+01
    -13.985  0.3035E+00  0.2680E+01
    -13.972  0.3022E+00  0.2684E+01
    -13.958  0.3009E+00  0.2688E+01
    -13.945  0.2996E+00  0.2693E+01
    -13.931  0.2982E+00  0.2697E+01
    -13.918  0.2969E+00  0.2701E+01
    -13.904  0.2956E+00  0.2705E+01
    -13.891  0.2943E+00  0.2708E+01
    -13.878  0.2930E+00  0.2712E+01
    -13.864  0.2916E+00  0.2716E+01
    -13.851  0.2903E+00  0.2720E+01
    -13.837  0.2889E+00  0.2724E+01
    -13.824  0.2875E+00  0.2728E+01
    -13.810  0.2861E+00  0.2732E+01
    -13.797  0.2847E+00  0.2736E+01
    -13.783  0.2833E+00  0.2740E+01
    -13.770  0.2819E+00  0.2743E+01
    -13.757  0.2808E+00  0.2747E+01
    -13.743  0.2798E+00  0.2751E+01
    -13.730  0.2791E+00  0.2755E+01
    -13.716  0.2786E+00  0.2758E+01
    -13.703  0.2783E+00  0.2762E+01
    -13.689  0.2780E+00  0.2766E+01
    -13.676  0.2777E+00  0.2770E+01
    -13.662  0.2774E+00  0.2773E+01
    -13.649  0.2771E+00  0.2777E+01
    -13.636  0.2768E+00  0.2781E+01
    -13.622  0.2766E+00  0.2785E+01
    -13.609  0.2763E+00  0.2788E+01
    -13.595  0.2760E+00  0.2792E+01
    -13.582  0.2757E+00  0.2796E+01
    -13.568  0.2754E+00  0.2799E+01
    -13.555  0.2751E+00  0.2803E+01
    -13.541  0.2748E+00  0.2807E+01
    -13.528  0.2746E+00  0.2810E+01
    -13.515  0.2743E+00  0.2814E+01
    -13.501  0.2740E+00  0.2818E+01
    -13.488  0.2737E+00  0.2821E+01
    -13.474  0.2734E+00  0.2825E+01
    -13.461  0.2731E+00  0.2829E+01
    -13.447  0.2728E+00  0.2833E+01
    -13.434  0.2725E+00  0.2836E+01
    -13.421  0.2723E+00  0.2840E+01
    -13.407  0.2720E+00  0.2843E+01
    -13.394  0.2717E+00  0.2847E+01
    -13.380  0.2714E+00  0.2851E+01
    -13.367  0.2711E+00  0.2854E+01
    -13.353  0.2708E+00  0.2858E+01
    -13.340  0.2705E+00  0.2862E+01
    -13.326  0.2703E+00  0.2865E+01
    -13.313  0.2700E+00  0.2869E+01
    -13.300  0.2710E+00  0.2873E+01
    -13.286  0.2745E+00  0.2876E+01
    -13.273  0.2780E+00  0.2880E+01
    -13.259  0.2815E+00  0.2884E+01
    -13.246  0.2850E+00  0.2888E+01
    -13.232  0.2885E+00  0.2891E+01
    -13.219  0.2920E+00  0.2895E+01
    -13.205  0.2955E+00  0.2899E+01
    -13.192  0.2989E+00  0.2903E+01
    -13.179  0.3024E+00  0.2907E+01
    -13.165  0.3059E+00  0.2911E+01
    -13.152  0.3094E+00  0.2916E+01
    -13.138  0.3128E+00  0.2920E+01
    -13.125  0.3163E+00  0.2924E+01
    -13.111  0.3198E+00  0.2928E+01
    -13.098  0.3233E+00  0.2933E+01
    -13.084  0.3267E+00  0.2937E+01
    -13.071  0.3302E+00  0.2941E+01
    -13.058  0.3337E+00  0.2946E+01
    -13.044  0.3371E+00  0.2950E+01
    -13.031  0.3406E+00  0.2955E+01
    -13.017  0.3441E+00  0.2959E+01