 vasp.5.4.4.18Apr17-6-g9f103f2a35 (build Jul 16 2023 17:01:57) complex          
  
 executed on             LinuxIFC date 2025.09.21  00:59:58
 running on   16 total cores
 distrk:  each k-point on   16 cores,    1 groups
 distr:  one band on NCORES_PER_BAND=   1 cores,   16 groups


--------------------------------------------------------------------------------------------------------


 INCAR:
 POTCAR:    PAW_PBE C 08Apr2002                   

 ----------------------------------------------------------------------------- 
|                                                                             |
|           W    W    AA    RRRRR   N    N  II  N    N   GGGG   !!!           |
|           W    W   A  A   R    R  NN   N  II  NN   N  G    G  !!!           |
|           W    W  A    A  R    R  N N  N  II  N N  N  G       !!!           |
|           W WW W  AAAAAA  RRRRR   N  N N  II  N  N N  G  GGG   !            |
|           WW  WW  A    A  R   R   N   NN  II  N   NN  G    G                |
|           W    W  A    A  R    R  N    N  II  N    N   GGGG   !!!           |
|                                                                             |
|      For optimal performance we recommend to set                            |
|        NCORE= 4 - approx SQRT( number of cores)                             |
|      NCORE specifies how many cores store one orbital (NPAR=cpu/NCORE).     |
|      This setting can  greatly improve the performance of VASP for DFT.     |
|      The default,   NCORE=1            might be grossly inefficient         |
|      on modern multi-core architectures or massively parallel machines.     |
|      Do your own testing !!!!                                               |
|      Unfortunately you need to use the default for GW and RPA calculations. |
|      (for HF NCORE is supported but not extensively tested yet)             |
|                                                                             |
 ----------------------------------------------------------------------------- 

 POTCAR:    PAW_PBE C 08Apr2002                   
   VRHFIN =C: s2p2                                                              
   LEXCH  = PE                                                                  
   EATOM  =   147.1560 eV,   10.8157 Ry                                         
                                                                                
   TITEL  = PAW_PBE C 08Apr2002                                                 
   LULTRA =        F    use ultrasoft PP ?                                      
   IUNSCR =        1    unscreen: 0-lin 1-nonlin 2-no                           
   RPACOR =    1.200    partial core radius                                     
   POMASS =   12.011; ZVAL   =    4.000    mass and valenz                      
   RCORE  =    1.500    outmost cutoff radius                                   
   RWIGS  =    1.630; RWIGS  =    0.863    wigner-seitz radius (au A)           
   ENMAX  =  400.000; ENMIN  =  300.000 eV                                      
   ICORE  =        2    local potential                                         
   LCOR   =        T    correct aug charges                                     
   LPAW   =        T    paw PP                                                  
   EAUG   =  644.873                                                            
   DEXC   =    0.000                                                            
   RMAX   =    1.529    core radius for proj-oper                               
   RAUG   =    1.300    factor for augmentation sphere                          
   RDEP   =    1.501    radius for radial grids                                 
   RDEPT  =    1.300    core radius for aug-charge                              
                                                                                
   Atomic configuration                                                         
    4 entries                                                                   
     n  l   j            E        occ.                                          
     1  0  0.50      -273.3789   2.0000                                         
     2  0  0.50       -13.7508   2.0000                                         
     2  1  0.50        -5.2854   2.0000                                         
     3  2  1.50        -5.4423   0.0000                                         
   Description                                                                  
     l       E           TYP  RCUT    TYP  RCUT                                 
     0    -13.7508458     23  1.200                                             
     0     -8.2022199     23  1.200                                             
     1     -5.2854383     23  1.500                                             
     1     34.0145650     23  1.500                                             
     2     -5.4423304      7  1.500                                             
  local pseudopotential read in
  partial core-charges read in
  partial kinetic energy density read in
  atomic valenz-charges read in
  non local Contribution for L=           0  read in
    real space projection operators read in
  non local Contribution for L=           0  read in
    real space projection operators read in
  non local Contribution for L=           1  read in
    real space projection operators read in
  non local Contribution for L=           1  read in
    real space projection operators read in
    PAW grid and wavefunctions read in
 
   number of l-projection  operators is LMAX  =           4
   number of lm-projection operators is LMMAX =           8
 
  PAW_PBE C 08Apr2002                   :
 energy of atom  1       EATOM= -147.1560
 kinetic energy error for atom=    0.0066 (will be added to EATOM!!)
 
 
 POSCAR: Graphene                                
  positions in direct lattice
  velocities in cartesian coordinates
 exchange correlation table for  LEXCH =        8
   RHO(1)=    0.500       N(1)  =     2000
   RHO(2)=  100.500       N(2)  =     4000
 


--------------------------------------------------------------------------------------------------------


 ion  position               nearest neighbor table
   1  0.333  0.667  0.500-   2 1.42   2 1.42   2 1.43
   2  0.667  0.333  0.500-   1 1.42   1 1.42   1 1.43
 
  Warning from LATTYP: Monoclinic adjustement (A1->A3, A2->A1, A3->A2)!
  Warning from LATTYP: Got some problem with cell dimensions!
  Tried to take original basis but could not verify dimensions!
  LATTYP: Found a simple monoclinic cell.
 ALAT       =     4.2600077007
 B/A-ratio  =     4.6948271940
 C/A-ratio  =     1.5282566558
 COS(beta)  =    -0.9818709431
  
  Lattice vectors:
  
 A1 = (  -0.0081000000,  -4.2600000000,   0.0000000000)
 A2 = (   0.0000000000,   0.0000000000, -20.0000000000)
 A3 = (   1.2462000000,   6.3900000000,   0.0000000000)


Analysis of symmetry for initial positions (statically):
=====================================================================
 Subroutine PRICEL returns:
 Original cell was already a primitive cell.
 

 Routine SETGRP: Setting up the symmetry group for a 
 simple monoclinic supercell.


 Subroutine GETGRP returns: Found  4 space group operations
 (whereof  4 operations were pure point group operations)
 out of a pool of  4 trial point group operations.


The static configuration has the point symmetry C_2h.


Analysis of symmetry for dynamics (positions and initial velocities):
=====================================================================
 Subroutine PRICEL returns:
 Original cell was already a primitive cell.
 

 Routine SETGRP: Setting up the symmetry group for a 
 simple monoclinic supercell.


 Subroutine GETGRP returns: Found  4 space group operations
 (whereof  4 operations were pure point group operations)
 out of a pool of  4 trial point group operations.


The dynamic configuration has the point symmetry C_2h.


 Subroutine INISYM returns: Found  4 space group operations
 (whereof  4 operations are pure point group operations),
 and found     1 'primitive' translations

 
 
 KPOINTS: Monkhorst-Pack Grid                     

Automatic generation of k-mesh.
Space group operators:
 irot       det(A)        alpha          n_x          n_y          n_z        tau_x        tau_y        tau_z
    1     1.000000     0.000001     1.000000     0.000000     0.000000     0.000000     0.000000     0.000000
    2    -1.000000     0.000001     1.000000     0.000000     0.000000     0.000000     0.000000     0.000000
    3     1.000000   180.000000     0.000000     0.000000     1.000000     0.000000     0.000000     0.000000
    4    -1.000000   180.000000     0.000000     0.000000     1.000000     0.000000     0.000000     0.000000
 
 Subroutine IBZKPT returns following result:
 ===========================================
 
 Found    113 irreducible k-points:
 
 Following reciprocal coordinates:
            Coordinates               Weight
  0.000000  0.000000  0.000000      1.000000
  0.066667 -0.000000  0.000000      2.000000
  0.133333 -0.000000  0.000000      2.000000
  0.200000 -0.000000  0.000000      2.000000
  0.266667 -0.000000  0.000000      2.000000
  0.333333 -0.000000  0.000000      2.000000
  0.400000 -0.000000  0.000000      2.000000
  0.466667 -0.000000  0.000000      2.000000
  0.000000  0.066667  0.000000      2.000000
  0.066667  0.066667  0.000000      2.000000
  0.133333  0.066667  0.000000      2.000000
  0.200000  0.066667  0.000000      2.000000
  0.266667  0.066667  0.000000      2.000000
  0.333333  0.066667  0.000000      2.000000
  0.400000  0.066667  0.000000      2.000000
  0.466667  0.066667  0.000000      2.000000
 -0.466667  0.066667  0.000000      2.000000
 -0.400000  0.066667  0.000000      2.000000
 -0.333333  0.066667  0.000000      2.000000
 -0.266667  0.066667  0.000000      2.000000
 -0.200000  0.066667  0.000000      2.000000
 -0.133333  0.066667  0.000000      2.000000
 -0.066667  0.066667  0.000000      2.000000
  0.000000  0.133333  0.000000      2.000000
  0.066667  0.133333  0.000000      2.000000
  0.133333  0.133333  0.000000      2.000000
  0.200000  0.133333  0.000000      2.000000
  0.266667  0.133333  0.000000      2.000000
  0.333333  0.133333  0.000000      2.000000
  0.400000  0.133333  0.000000      2.000000
  0.466667  0.133333  0.000000      2.000000
 -0.466667  0.133333  0.000000      2.000000
 -0.400000  0.133333  0.000000      2.000000
 -0.333333  0.133333  0.000000      2.000000
 -0.266667  0.133333  0.000000      2.000000
 -0.200000  0.133333  0.000000      2.000000
 -0.133333  0.133333  0.000000      2.000000
 -0.066667  0.133333  0.000000      2.000000
  0.000000  0.200000  0.000000      2.000000
  0.066667  0.200000  0.000000      2.000000
  0.133333  0.200000  0.000000      2.000000
  0.200000  0.200000  0.000000      2.000000
  0.266667  0.200000  0.000000      2.000000
  0.333333  0.200000  0.000000      2.000000
  0.400000  0.200000  0.000000      2.000000
  0.466667  0.200000  0.000000      2.000000
 -0.466667  0.200000  0.000000      2.000000
 -0.400000  0.200000  0.000000      2.000000
 -0.333333  0.200000  0.000000      2.000000
 -0.266667  0.200000  0.000000      2.000000
 -0.200000  0.200000  0.000000      2.000000
 -0.133333  0.200000  0.000000      2.000000
 -0.066667  0.200000  0.000000      2.000000
  0.000000  0.266667  0.000000      2.000000
  0.066667  0.266667  0.000000      2.000000
  0.133333  0.266667  0.000000      2.000000
  0.200000  0.266667  0.000000      2.000000
  0.266667  0.266667  0.000000      2.000000
  0.333333  0.266667  0.000000      2.000000
  0.400000  0.266667  0.000000      2.000000
  0.466667  0.266667  0.000000      2.000000
 -0.466667  0.266667  0.000000      2.000000
 -0.400000  0.266667  0.000000      2.000000
 -0.333333  0.266667  0.000000      2.000000
 -0.266667  0.266667  0.000000      2.000000
 -0.200000  0.266667  0.000000      2.000000
 -0.133333  0.266667  0.000000      2.000000
 -0.066667  0.266667  0.000000      2.000000
  0.000000  0.333333  0.000000      2.000000
  0.066667  0.333333  0.000000      2.000000
  0.133333  0.333333  0.000000      2.000000
  0.200000  0.333333  0.000000      2.000000
  0.266667  0.333333  0.000000      2.000000
  0.333333  0.333333  0.000000      2.000000
  0.400000  0.333333  0.000000      2.000000
  0.466667  0.333333  0.000000      2.000000
 -0.466667  0.333333  0.000000      2.000000
 -0.400000  0.333333  0.000000      2.000000
 -0.333333  0.333333  0.000000      2.000000
 -0.266667  0.333333  0.000000      2.000000
 -0.200000  0.333333  0.000000      2.000000
 -0.133333  0.333333  0.000000      2.000000
 -0.066667  0.333333  0.000000      2.000000
  0.000000  0.400000  0.000000      2.000000
  0.066667  0.400000  0.000000      2.000000
  0.133333  0.400000  0.000000      2.000000
  0.200000  0.400000  0.000000      2.000000
  0.266667  0.400000  0.000000      2.000000
  0.333333  0.400000  0.000000      2.000000
  0.400000  0.400000  0.000000      2.000000
  0.466667  0.400000  0.000000      2.000000
 -0.466667  0.400000  0.000000      2.000000
 -0.400000  0.400000  0.000000      2.000000
 -0.333333  0.400000  0.000000      2.000000
 -0.266667  0.400000  0.000000      2.000000
 -0.200000  0.400000  0.000000      2.000000
 -0.133333  0.400000  0.000000      2.000000
 -0.066667  0.400000  0.000000      2.000000
  0.000000  0.466667  0.000000      2.000000
  0.066667  0.466667  0.000000      2.000000
  0.133333  0.466667  0.000000      2.000000
  0.200000  0.466667  0.000000      2.000000
  0.266667  0.466667  0.000000      2.000000
  0.333333  0.466667  0.000000      2.000000
  0.400000  0.466667  0.000000      2.000000
  0.466667  0.466667  0.000000      2.000000
 -0.466667  0.466667  0.000000      2.000000
 -0.400000  0.466667  0.000000      2.000000
 -0.333333  0.466667  0.000000      2.000000
 -0.266667  0.466667  0.000000      2.000000
 -0.200000  0.466667  0.000000      2.000000
 -0.133333  0.466667  0.000000      2.000000
 -0.066667  0.466667  0.000000      2.000000
 
 Following cartesian coordinates:
            Coordinates               Weight
  0.000000  0.000000  0.000000      1.000000
  0.027011  0.015598  0.000000      2.000000
  0.054023  0.031196  0.000000      2.000000
  0.081034  0.046794  0.000000      2.000000
  0.108045  0.062392  0.000000      2.000000
  0.135057  0.077990  0.000000      2.000000
  0.162068  0.093589  0.000000      2.000000
  0.189079  0.109187  0.000000      2.000000
  0.000000  0.031299  0.000000      2.000000
  0.027011  0.046897  0.000000      2.000000
  0.054023  0.062495  0.000000      2.000000
  0.081034  0.078093  0.000000      2.000000
  0.108045  0.093691  0.000000      2.000000
  0.135057  0.109289  0.000000      2.000000
  0.162068  0.124887  0.000000      2.000000
  0.189079  0.140486  0.000000      2.000000
 -0.189079 -0.077888  0.000000      2.000000
 -0.162068 -0.062290  0.000000      2.000000
 -0.135057 -0.046692  0.000000      2.000000
 -0.108045 -0.031093  0.000000      2.000000
 -0.081034 -0.015495  0.000000      2.000000
 -0.054023  0.000103  0.000000      2.000000
 -0.027011  0.015701  0.000000      2.000000
  0.000000  0.062598  0.000000      2.000000
  0.027011  0.078196  0.000000      2.000000
  0.054023  0.093794  0.000000      2.000000
  0.081034  0.109392  0.000000      2.000000
  0.108045  0.124990  0.000000      2.000000
  0.135057  0.140588  0.000000      2.000000
  0.162068  0.156186  0.000000      2.000000
  0.189079  0.171784  0.000000      2.000000
 -0.189079 -0.046589  0.000000      2.000000
 -0.162068 -0.030991  0.000000      2.000000
 -0.135057 -0.015393  0.000000      2.000000
 -0.108045  0.000205  0.000000      2.000000
 -0.081034  0.015804  0.000000      2.000000
 -0.054023  0.031402  0.000000      2.000000
 -0.027011  0.047000  0.000000      2.000000
  0.000000  0.093897  0.000000      2.000000
  0.027011  0.109495  0.000000      2.000000
  0.054023  0.125093  0.000000      2.000000
  0.081034  0.140691  0.000000      2.000000
  0.108045  0.156289  0.000000      2.000000
  0.135057  0.171887  0.000000      2.000000
  0.162068  0.187485  0.000000      2.000000
  0.189079  0.203083  0.000000      2.000000
 -0.189079 -0.015290  0.000000      2.000000
 -0.162068  0.000308  0.000000      2.000000
 -0.135057  0.015906  0.000000      2.000000
 -0.108045  0.031504  0.000000      2.000000
 -0.081034  0.047102  0.000000      2.000000
 -0.054023  0.062701  0.000000      2.000000
 -0.027011  0.078299  0.000000      2.000000
  0.000000  0.125196  0.000000      2.000000
  0.027011  0.140794  0.000000      2.000000
  0.054023  0.156392  0.000000      2.000000
  0.081034  0.171990  0.000000      2.000000
  0.108045  0.187588  0.000000      2.000000
  0.135057  0.203186  0.000000      2.000000
  0.162068  0.218784  0.000000      2.000000
  0.189079  0.234382  0.000000      2.000000
 -0.189079  0.016009  0.000000      2.000000
 -0.162068  0.031607  0.000000      2.000000
 -0.135057  0.047205  0.000000      2.000000
 -0.108045  0.062803  0.000000      2.000000
 -0.081034  0.078401  0.000000      2.000000
 -0.054023  0.093999  0.000000      2.000000
 -0.027011  0.109598  0.000000      2.000000
  0.000000  0.156495  0.000000      2.000000
  0.027011  0.172093  0.000000      2.000000
  0.054023  0.187691  0.000000      2.000000
  0.081034  0.203289  0.000000      2.000000
  0.108045  0.218887  0.000000      2.000000
  0.135057  0.234485  0.000000      2.000000
  0.162068  0.250083  0.000000      2.000000
  0.189079  0.265681  0.000000      2.000000
 -0.189079  0.047308  0.000000      2.000000
 -0.162068  0.062906  0.000000      2.000000
 -0.135057  0.078504  0.000000      2.000000
 -0.108045  0.094102  0.000000      2.000000
 -0.081034  0.109700  0.000000      2.000000
 -0.054023  0.125298  0.000000      2.000000
 -0.027011  0.140896  0.000000      2.000000
  0.000000  0.187793  0.000000      2.000000
  0.027011  0.203392  0.000000      2.000000
  0.054023  0.218990  0.000000      2.000000
  0.081034  0.234588  0.000000      2.000000
  0.108045  0.250186  0.000000      2.000000
  0.135057  0.265784  0.000000      2.000000
  0.162068  0.281382  0.000000      2.000000
  0.189079  0.296980  0.000000      2.000000
 -0.189079  0.078607  0.000000      2.000000
 -0.162068  0.094205  0.000000      2.000000
 -0.135057  0.109803  0.000000      2.000000
 -0.108045  0.125401  0.000000      2.000000
 -0.081034  0.140999  0.000000      2.000000
 -0.054023  0.156597  0.000000      2.000000
 -0.027011  0.172195  0.000000      2.000000
  0.000000  0.219092  0.000000      2.000000
  0.027011  0.234690  0.000000      2.000000
  0.054023  0.250289  0.000000      2.000000
  0.081034  0.265887  0.000000      2.000000
  0.108045  0.281485  0.000000      2.000000
  0.135057  0.297083  0.000000      2.000000
  0.162068  0.312681  0.000000      2.000000
  0.189079  0.328279  0.000000      2.000000
 -0.189079  0.109906  0.000000      2.000000
 -0.162068  0.125504  0.000000      2.000000
 -0.135057  0.141102  0.000000      2.000000
 -0.108045  0.156700  0.000000      2.000000
 -0.081034  0.172298  0.000000      2.000000
 -0.054023  0.187896  0.000000      2.000000
 -0.027011  0.203494  0.000000      2.000000
 
 TETIRR: Found    672 inequivalent tetrahedra from     1350


--------------------------------------------------------------------------------------------------------




 Dimension of arrays:
   k-points           NKPTS =    113   k-points in BZ     NKDIM =    113   number of bands    NBANDS=     16
   number of dos      NEDOS =   3000   number of ions     NIONS =      2
   non local maximal  LDIM  =      4   non local SUM 2l+1 LMDIM =      8
   total plane-waves  NPLWV =  64000
   max r-space proj   IRMAX =      1   max aug-charges    IRDMAX=   7382
   dimension x,y,z NGX =    20 NGY =   20 NGZ =  160
   dimension x,y,z NGXF=    40 NGYF=   40 NGZF=  320
   support grid    NGXF=    40 NGYF=   40 NGZF=  320
   ions per type =               2
   NGX,Y,Z   is equivalent  to a cutoff of  13.47, 13.52, 13.30 a.u.
   NGXF,Y,Z  is equivalent  to a cutoff of  26.94, 27.04, 26.60 a.u.

 SYSTEM =  Graphene SCF                            
 POSCAR =  Graphene                                

 Startparameter for this run:
   NWRITE =      2    write-flag & timer
   PREC   = accura    normal or accurate (medium, high low for compatibility)
   ISTART =      1    job   : 0-new  1-cont  2-samecut
   ICHARG =     11    charge: 1-file 2-atom 10-const
   ISPIN  =      1    spin polarized calculation?
   LNONCOLLINEAR =      F non collinear calculations
   LSORBIT =      F    spin-orbit coupling
   INIWAV =      1    electr: 0-lowe 1-rand  2-diag
   LASPH  =      F    aspherical Exc in radial PAW
   METAGGA=      F    non-selfconsistent MetaGGA calc.

 Electronic Relaxation 1
   ENCUT  =  550.0 eV  40.42 Ry    6.36 a.u.   4.72  4.70 38.24*2*pi/ulx,y,z
   ENINI  =  550.0     initial cutoff
   ENAUG  =  644.9 eV  augmentation charge cutoff
   NELM   =     60;   NELMIN=  2; NELMDL=  0     # of ELM steps 
   EDIFF  = 0.1E-05   stopping-criterion for ELM
   LREAL  =      F    real-space projection
   NLSPLINE    = F    spline interpolate recip. space projectors
   LCOMPAT=      F    compatible to vasp.4.4
   GGA_COMPAT  = T    GGA compatible to vasp.4.4-vasp.4.6
   LMAXPAW     = -100 max onsite density
   LMAXMIX     =    2 max onsite mixed and CHGCAR
   VOSKOWN=      0    Vosko Wilk Nusair interpolation
   ROPT   =    0.00000
 Ionic relaxation
   EDIFFG = -.1E-01   stopping-criterion for IOM
   NSW    =      0    number of steps for IOM
   NBLOCK =      1;   KBLOCK =      1    inner block; outer block 
   IBRION =     -1    ionic relax: 0-MD 1-quasi-New 2-CG
   NFREE  =      0    steps in history (QN), initial steepest desc. (CG)
   ISIF   =      2    stress and relaxation
   IWAVPR =     10    prediction:  0-non 1-charg 2-wave 3-comb
   ISYM   =      2    0-nonsym 1-usesym 2-fastsym
   LCORR  =      T    Harris-Foulkes like correction to forces

   POTIM  = 0.5000    time-step for ionic-motion
   TEIN   =    0.0    initial temperature
   TEBEG  =    0.0;   TEEND  =   0.0 temperature during run
   SMASS  =  -3.00    Nose mass-parameter (am)
   estimated Nose-frequenzy (Omega)   =  0.10E-29 period in steps =****** mass=  -0.139E-27a.u.
   SCALEE = 1.0000    scale energy and forces
   NPACO  =    256;   APACO  = 16.0  distance and # of slots for P.C.
   PSTRESS=    0.0 pullay stress

  Mass of Ions in am
   POMASS =  12.01
  Ionic Valenz
   ZVAL   =   4.00
  Atomic Wigner-Seitz radii
   RWIGS  =  -1.00
  virtual crystal weights 
   VCA    =   1.00
   NELECT =       8.0000    total number of electrons
   NUPDOWN=      -1.0000    fix difference up-down

 DOS related values:
   EMIN   =  10.00;   EMAX   =-10.00  energy-range for DOS
   EFERMI =   0.00
   ISMEAR =    -5;   SIGMA  =   0.05  broadening in eV -4-tet -1-fermi 0-gaus

 Electronic relaxation 2 (details)
   IALGO  =     38    algorithm
   LDIAG  =      T    sub-space diagonalisation (order eigenvalues)
   LSUBROT=      F    optimize rotation matrix (better conditioning)
   TURBO    =      0    0=normal 1=particle mesh
   IRESTART =      0    0=no restart 2=restart with 2 vectors
   NREBOOT  =      0    no. of reboots
   NMIN     =      0    reboot dimension
   EREF     =   0.00    reference energy to select bands
   IMIX   =      4    mixing-type and parameters
     AMIX     =   0.40;   BMIX     =  1.00
     AMIX_MAG =   1.60;   BMIX_MAG =  1.00
     AMIN     =   0.10
     WC   =   100.;   INIMIX=   1;  MIXPRE=   1;  MAXMIX= -45

 Intra band minimization:
   WEIMIN = 0.0000     energy-eigenvalue tresh-hold
   EBREAK =  0.16E-07  absolut break condition
   DEPER  =   0.30     relativ break condition  

   TIME   =   0.40     timestep for ELM

  volume/ion in A,a.u.               =      52.57       354.76
  Fermi-wavevector in a.u.,A,eV,Ry     =   0.693714  1.310930  6.547663  0.481240
  Thomas-Fermi vector in A             =   1.776005
 
 Write flags
   LWAVE        =      F    write WAVECAR
   LDOWNSAMPLE  =      F    k-point downsampling of WAVECAR
   LCHARG       =      F    write CHGCAR
   LVTOT        =      F    write LOCPOT, total local potential
   LVHAR        =      F    write LOCPOT, Hartree potential only
   LELF         =      F    write electronic localiz. function (ELF)
   LORBIT       =     11    0 simple, 1 ext, 2 COOP (PROOUT), +10 PAW based schemes


 Dipole corrections
   LMONO  =      F    monopole corrections only (constant potential shift)
   LDIPOL =      F    correct potential (dipole corrections)
   IDIPOL =      0    1-x, 2-y, 3-z, 4-all directions 
   EPSILON=  1.0000000 bulk dielectric constant

 Exchange correlation treatment:
   GGA     =    --    GGA type
   LEXCH   =     8    internal setting for exchange type
   VOSKOWN=      0    Vosko Wilk Nusair interpolation
   LHFCALC =     F    Hartree Fock is set to
   LHFONE  =     F    Hartree Fock one center treatment
   AEXX    =    0.0000 exact exchange contribution

 Linear response parameters
   LEPSILON=     F    determine dielectric tensor
   LRPA    =     F    only Hartree local field effects (RPA)
   LNABLA  =     F    use nabla operator in PAW spheres
   LVEL    =     F    velocity operator in full k-point grid
   LINTERFAST=   F  fast interpolation
   KINTER  =     0    interpolate to denser k-point grid
   CSHIFT  =0.1000    complex shift for real part using Kramers Kronig
   OMEGAMAX=  -1.0    maximum frequency
   DEG_THRESHOLD= 0.2000000E-02 threshold for treating states as degnerate
   RTIME   =   -0.100 relaxation time in fs
  (WPLASMAI=    0.000 imaginary part of plasma frequency in eV, 0.658/RTIME)
   DFIELD  = 0.0000000 0.0000000 0.0000000 field for delta impulse in time
 
 Orbital magnetization related:
   ORBITALMAG=     F  switch on orbital magnetization
   LCHIMAG   =     F  perturbation theory with respect to B field
   DQ        =  0.001000  dq finite difference perturbation B field
   LLRAUG    =     F  two centre corrections for induced B field



--------------------------------------------------------------------------------------------------------


 Static calculation
 charge density and potential remain constant during run
 non-spin polarized calculation
 Variant of blocked Davidson
 Davidson routine will perform the subspace rotation
 perform sub-space diagonalisation
    after iterative eigenvector-optimisation
 no mixing
 using additional bands           12
 reciprocal scheme for non local part
 use partial core corrections
 calculate Harris-corrections to forces 
   (improved forces if not selfconsistent)
 use gradient corrections 
 WARNING: stress and forces are not correct
  (second derivative of E(xc) not defined)
 use of overlap-Matrix (Vanderbilt PP)
 Fermi weights with tetrahedron method with Bloechl corrections


--------------------------------------------------------------------------------------------------------


  energy-cutoff  :      550.00
  volume of cell :      105.14
      direct lattice vectors                 reciprocal lattice vectors
     2.468100000  0.000000000  0.000000000     0.405169969  0.233971390  0.000000000
    -1.230000000  2.130000000  0.000000000     0.000000000  0.469483568  0.000000000
     0.000000000  0.000000000 20.000000000     0.000000000  0.000000000  0.050000000

  length of vectors
     2.468100000  2.459634119 20.000000000     0.467873183  0.469483568  0.050000000


 
 old parameters found on file WAVECAR:
  energy-cutoff  :      350.00
  volume of cell :       78.60
      direct lattice vectors                 reciprocal lattice vectors
     2.460000000  0.000000000  0.000000000     0.406504065  0.234741784  0.000000000
    -1.230000000  2.130000000  0.000000000     0.000000000  0.469483568  0.000000000
     0.000000000  0.000000000 15.000000000     0.000000000  0.000000000  0.066666667

  length of vectors

 
 k-points in units of 2pi/SCALE and weight: Monkhorst-Pack Grid                     
   0.00000000  0.00000000  0.00000000       0.004
   0.02701133  0.01559809  0.00000000       0.009
   0.05402266  0.03119619  0.00000000       0.009
   0.08103399  0.04679428  0.00000000       0.009
   0.10804533  0.06239237  0.00000000       0.009
   0.13505666  0.07799046  0.00000000       0.009
   0.16206799  0.09358856  0.00000000       0.009
   0.18907932  0.10918665  0.00000000       0.009
   0.00000000  0.03129890  0.00000000       0.009
   0.02701133  0.04689700  0.00000000       0.009
   0.05402266  0.06249509  0.00000000       0.009
   0.08103399  0.07809318  0.00000000       0.009
   0.10804533  0.09369128  0.00000000       0.009
   0.13505666  0.10928937  0.00000000       0.009
   0.16206799  0.12488746  0.00000000       0.009
   0.18907932  0.14048555  0.00000000       0.009
  -0.18907932 -0.07788774  0.00000000       0.009
  -0.16206799 -0.06228965  0.00000000       0.009
  -0.13505666 -0.04669156  0.00000000       0.009
  -0.10804533 -0.03109347  0.00000000       0.009
  -0.08103399 -0.01549537  0.00000000       0.009
  -0.05402266  0.00010272  0.00000000       0.009
  -0.02701133  0.01570081  0.00000000       0.009
   0.00000000  0.06259781  0.00000000       0.009
   0.02701133  0.07819590  0.00000000       0.009
   0.05402266  0.09379399  0.00000000       0.009
   0.08103399  0.10939209  0.00000000       0.009
   0.10804533  0.12499018  0.00000000       0.009
   0.13505666  0.14058827  0.00000000       0.009
   0.16206799  0.15618637  0.00000000       0.009
   0.18907932  0.17178446  0.00000000       0.009
  -0.18907932 -0.04658884  0.00000000       0.009
  -0.16206799 -0.03099075  0.00000000       0.009
  -0.13505666 -0.01539265  0.00000000       0.009
  -0.10804533  0.00020544  0.00000000       0.009
  -0.08103399  0.01580353  0.00000000       0.009
  -0.05402266  0.03140162  0.00000000       0.009
  -0.02701133  0.04699972  0.00000000       0.009
   0.00000000  0.09389671  0.00000000       0.009
   0.02701133  0.10949481  0.00000000       0.009
   0.05402266  0.12509290  0.00000000       0.009
   0.08103399  0.14069099  0.00000000       0.009
   0.10804533  0.15628908  0.00000000       0.009
   0.13505666  0.17188718  0.00000000       0.009
   0.16206799  0.18748527  0.00000000       0.009
   0.18907932  0.20308336  0.00000000       0.009
  -0.18907932 -0.01528994  0.00000000       0.009
  -0.16206799  0.00030816  0.00000000       0.009
  -0.13505666  0.01590625  0.00000000       0.009
  -0.10804533  0.03150434  0.00000000       0.009
  -0.08103399  0.04710244  0.00000000       0.009
  -0.05402266  0.06270053  0.00000000       0.009
  -0.02701133  0.07829862  0.00000000       0.009
   0.00000000  0.12519562  0.00000000       0.009
   0.02701133  0.14079371  0.00000000       0.009
   0.05402266  0.15639180  0.00000000       0.009
   0.08103399  0.17198990  0.00000000       0.009
   0.10804533  0.18758799  0.00000000       0.009
   0.13505666  0.20318608  0.00000000       0.009
   0.16206799  0.21878417  0.00000000       0.009
   0.18907932  0.23438227  0.00000000       0.009
  -0.18907932  0.01600897  0.00000000       0.009
  -0.16206799  0.03160706  0.00000000       0.009
  -0.13505666  0.04720515  0.00000000       0.009
  -0.10804533  0.06280325  0.00000000       0.009
  -0.08103399  0.07840134  0.00000000       0.009
  -0.05402266  0.09399943  0.00000000       0.009
  -0.02701133  0.10959753  0.00000000       0.009
   0.00000000  0.15649452  0.00000000       0.009
   0.02701133  0.17209262  0.00000000       0.009
   0.05402266  0.18769071  0.00000000       0.009
   0.08103399  0.20328880  0.00000000       0.009
   0.10804533  0.21888689  0.00000000       0.009
   0.13505666  0.23448499  0.00000000       0.009
   0.16206799  0.25008308  0.00000000       0.009
   0.18907932  0.26568117  0.00000000       0.009
  -0.18907932  0.04730787  0.00000000       0.009
  -0.16206799  0.06290597  0.00000000       0.009
  -0.13505666  0.07850406  0.00000000       0.009
  -0.10804533  0.09410215  0.00000000       0.009
  -0.08103399  0.10970024  0.00000000       0.009
  -0.05402266  0.12529834  0.00000000       0.009
  -0.02701133  0.14089643  0.00000000       0.009
   0.00000000  0.18779343  0.00000000       0.009
   0.02701133  0.20339152  0.00000000       0.009
   0.05402266  0.21898961  0.00000000       0.009
   0.08103399  0.23458771  0.00000000       0.009
   0.10804533  0.25018580  0.00000000       0.009
   0.13505666  0.26578389  0.00000000       0.009
   0.16206799  0.28138198  0.00000000       0.009
   0.18907932  0.29698008  0.00000000       0.009
  -0.18907932  0.07860678  0.00000000       0.009
  -0.16206799  0.09420487  0.00000000       0.009
  -0.13505666  0.10980296  0.00000000       0.009
  -0.10804533  0.12540106  0.00000000       0.009
  -0.08103399  0.14099915  0.00000000       0.009
  -0.05402266  0.15659724  0.00000000       0.009
  -0.02701133  0.17219533  0.00000000       0.009
   0.00000000  0.21909233  0.00000000       0.009
   0.02701133  0.23469042  0.00000000       0.009
   0.05402266  0.25028852  0.00000000       0.009
   0.08103399  0.26588661  0.00000000       0.009
   0.10804533  0.28148470  0.00000000       0.009
   0.13505666  0.29708280  0.00000000       0.009
   0.16206799  0.31268089  0.00000000       0.009
   0.18907932  0.32827898  0.00000000       0.009
  -0.18907932  0.10990568  0.00000000       0.009
  -0.16206799  0.12550378  0.00000000       0.009
  -0.13505666  0.14110187  0.00000000       0.009
  -0.10804533  0.15669996  0.00000000       0.009
  -0.08103399  0.17229805  0.00000000       0.009
  -0.05402266  0.18789615  0.00000000       0.009
  -0.02701133  0.20349424  0.00000000       0.009
 
 k-points in reciprocal lattice and weights: Monkhorst-Pack Grid                     
   0.00000000  0.00000000  0.00000000       0.004
   0.06666667 -0.00000000  0.00000000       0.009
   0.13333333 -0.00000000  0.00000000       0.009
   0.20000000 -0.00000000  0.00000000       0.009
   0.26666667 -0.00000000  0.00000000       0.009
   0.33333333 -0.00000000  0.00000000       0.009
   0.40000000 -0.00000000  0.00000000       0.009
   0.46666667 -0.00000000  0.00000000       0.009
   0.00000000  0.06666667  0.00000000       0.009
   0.06666667  0.06666667  0.00000000       0.009
   0.13333333  0.06666667  0.00000000       0.009
   0.20000000  0.06666667  0.00000000       0.009
   0.26666667  0.06666667  0.00000000       0.009
   0.33333333  0.06666667  0.00000000       0.009
   0.40000000  0.06666667  0.00000000       0.009
   0.46666667  0.06666667  0.00000000       0.009
  -0.46666667  0.06666667  0.00000000       0.009
  -0.40000000  0.06666667  0.00000000       0.009
  -0.33333333  0.06666667  0.00000000       0.009
  -0.26666667  0.06666667  0.00000000       0.009
  -0.20000000  0.06666667  0.00000000       0.009
  -0.13333333  0.06666667  0.00000000       0.009
  -0.06666667  0.06666667  0.00000000       0.009
   0.00000000  0.13333333  0.00000000       0.009
   0.06666667  0.13333333  0.00000000       0.009
   0.13333333  0.13333333  0.00000000       0.009
   0.20000000  0.13333333  0.00000000       0.009
   0.26666667  0.13333333  0.00000000       0.009
   0.33333333  0.13333333  0.00000000       0.009
   0.40000000  0.13333333  0.00000000       0.009
   0.46666667  0.13333333  0.00000000       0.009
  -0.46666667  0.13333333  0.00000000       0.009
  -0.40000000  0.13333333  0.00000000       0.009
  -0.33333333  0.13333333  0.00000000       0.009
  -0.26666667  0.13333333  0.00000000       0.009
  -0.20000000  0.13333333  0.00000000       0.009
  -0.13333333  0.13333333  0.00000000       0.009
  -0.06666667  0.13333333  0.00000000       0.009
   0.00000000  0.20000000  0.00000000       0.009
   0.06666667  0.20000000  0.00000000       0.009
   0.13333333  0.20000000  0.00000000       0.009
   0.20000000  0.20000000  0.00000000       0.009
   0.26666667  0.20000000  0.00000000       0.009
   0.33333333  0.20000000  0.00000000       0.009
   0.40000000  0.20000000  0.00000000       0.009
   0.46666667  0.20000000  0.00000000       0.009
  -0.46666667  0.20000000  0.00000000       0.009
  -0.40000000  0.20000000  0.00000000       0.009
  -0.33333333  0.20000000  0.00000000       0.009
  -0.26666667  0.20000000  0.00000000       0.009
  -0.20000000  0.20000000  0.00000000       0.009
  -0.13333333  0.20000000  0.00000000       0.009
  -0.06666667  0.20000000  0.00000000       0.009
   0.00000000  0.26666667  0.00000000       0.009
   0.06666667  0.26666667  0.00000000       0.009
   0.13333333  0.26666667  0.00000000       0.009
   0.20000000  0.26666667  0.00000000       0.009
   0.26666667  0.26666667  0.00000000       0.009
   0.33333333  0.26666667  0.00000000       0.009
   0.40000000  0.26666667  0.00000000       0.009
   0.46666667  0.26666667  0.00000000       0.009
  -0.46666667  0.26666667  0.00000000       0.009
  -0.40000000  0.26666667  0.00000000       0.009
  -0.33333333  0.26666667  0.00000000       0.009
  -0.26666667  0.26666667  0.00000000       0.009
  -0.20000000  0.26666667  0.00000000       0.009
  -0.13333333  0.26666667  0.00000000       0.009
  -0.06666667  0.26666667  0.00000000       0.009
   0.00000000  0.33333333  0.00000000       0.009
   0.06666667  0.33333333  0.00000000       0.009
   0.13333333  0.33333333  0.00000000       0.009
   0.20000000  0.33333333  0.00000000       0.009
   0.26666667  0.33333333  0.00000000       0.009
   0.33333333  0.33333333  0.00000000       0.009
   0.40000000  0.33333333  0.00000000       0.009
   0.46666667  0.33333333  0.00000000       0.009
  -0.46666667  0.33333333  0.00000000       0.009
  -0.40000000  0.33333333  0.00000000       0.009
  -0.33333333  0.33333333  0.00000000       0.009
  -0.26666667  0.33333333  0.00000000       0.009
  -0.20000000  0.33333333  0.00000000       0.009
  -0.13333333  0.33333333  0.00000000       0.009
  -0.06666667  0.33333333  0.00000000       0.009
   0.00000000  0.40000000  0.00000000       0.009
   0.06666667  0.40000000  0.00000000       0.009
   0.13333333  0.40000000  0.00000000       0.009
   0.20000000  0.40000000  0.00000000       0.009
   0.26666667  0.40000000  0.00000000       0.009
   0.33333333  0.40000000  0.00000000       0.009
   0.40000000  0.40000000  0.00000000       0.009
   0.46666667  0.40000000  0.00000000       0.009
  -0.46666667  0.40000000  0.00000000       0.009
  -0.40000000  0.40000000  0.00000000       0.009
  -0.33333333  0.40000000  0.00000000       0.009
  -0.26666667  0.40000000  0.00000000       0.009
  -0.20000000  0.40000000  0.00000000       0.009
  -0.13333333  0.40000000  0.00000000       0.009
  -0.06666667  0.40000000  0.00000000       0.009
   0.00000000  0.46666667  0.00000000       0.009
   0.06666667  0.46666667  0.00000000       0.009
   0.13333333  0.46666667  0.00000000       0.009
   0.20000000  0.46666667  0.00000000       0.009
   0.26666667  0.46666667  0.00000000       0.009
   0.33333333  0.46666667  0.00000000       0.009
   0.40000000  0.46666667  0.00000000       0.009
   0.46666667  0.46666667  0.00000000       0.009
  -0.46666667  0.46666667  0.00000000       0.009
  -0.40000000  0.46666667  0.00000000       0.009
  -0.33333333  0.46666667  0.00000000       0.009
  -0.26666667  0.46666667  0.00000000       0.009
  -0.20000000  0.46666667  0.00000000       0.009
  -0.13333333  0.46666667  0.00000000       0.009
  -0.06666667  0.46666667  0.00000000       0.009
 
 position of ions in fractional coordinates (direct lattice) 
   0.33338056  0.66671353  0.50000000
   0.66661944  0.33328647  0.50000000
 
 position of ions in cartesian coordinates  (Angst):
   0.00275893  1.42009981 10.00000000
   1.23534107  0.70990019 10.00000000
 


--------------------------------------------------------------------------------------------------------


 k-point  1 :   0.0000 0.0000 0.0000  plane waves:    3117
 k-point  2 :   0.0667-0.0000 0.0000  plane waves:    3103
 k-point  3 :   0.1333-0.0000 0.0000  plane waves:    3096
 k-point  4 :   0.2000-0.0000 0.0000  plane waves:    3078
 k-point  5 :   0.2667-0.0000 0.0000  plane waves:    3062
 k-point  6 :   0.3333-0.0000 0.0000  plane waves:    3076
 k-point  7 :   0.4000-0.0000 0.0000  plane waves:    3098
 k-point  8 :   0.4667-0.0000 0.0000  plane waves:    3100
 k-point  9 :   0.0000 0.0667 0.0000  plane waves:    3101
 k-point 10 :   0.0667 0.0667 0.0000  plane waves:    3085
 k-point 11 :   0.1333 0.0667 0.0000  plane waves:    3087
 k-point 12 :   0.2000 0.0667 0.0000  plane waves:    3079
 k-point 13 :   0.2667 0.0667 0.0000  plane waves:    3069
 k-point 14 :   0.3333 0.0667 0.0000  plane waves:    3087
 k-point 15 :   0.4000 0.0667 0.0000  plane waves:    3092
 k-point 16 :   0.4667 0.0667 0.0000  plane waves:    3088
 k-point 17 :  -0.4667 0.0667 0.0000  plane waves:    3094
 k-point 18 :  -0.4000 0.0667 0.0000  plane waves:    3083
 k-point 19 :  -0.3333 0.0667 0.0000  plane waves:    3078
 k-point 20 :  -0.2667 0.0667 0.0000  plane waves:    3075
 k-point 21 :  -0.2000 0.0667 0.0000  plane waves:    3089
 k-point 22 :  -0.1333 0.0667 0.0000  plane waves:    3089
 k-point 23 :  -0.0667 0.0667 0.0000  plane waves:    3105
 k-point 24 :   0.0000 0.1333 0.0000  plane waves:    3096
 k-point 25 :   0.0667 0.1333 0.0000  plane waves:    3093
 k-point 26 :   0.1333 0.1333 0.0000  plane waves:    3091
 k-point 27 :   0.2000 0.1333 0.0000  plane waves:    3085
 k-point 28 :   0.2667 0.1333 0.0000  plane waves:    3083
 k-point 29 :   0.3333 0.1333 0.0000  plane waves:    3089
 k-point 30 :   0.4000 0.1333 0.0000  plane waves:    3071
 k-point 31 :   0.4667 0.1333 0.0000  plane waves:    3074
 k-point 32 :  -0.4667 0.1333 0.0000  plane waves:    3081
 k-point 33 :  -0.4000 0.1333 0.0000  plane waves:    3080
 k-point 34 :  -0.3333 0.1333 0.0000  plane waves:    3091
 k-point 35 :  -0.2667 0.1333 0.0000  plane waves:    3087
 k-point 36 :  -0.2000 0.1333 0.0000  plane waves:    3089
 k-point 37 :  -0.1333 0.1333 0.0000  plane waves:    3094
 k-point 38 :  -0.0667 0.1333 0.0000  plane waves:    3087
 k-point 39 :   0.0000 0.2000 0.0000  plane waves:    3070
 k-point 40 :   0.0667 0.2000 0.0000  plane waves:    3081
 k-point 41 :   0.1333 0.2000 0.0000  plane waves:    3091
 k-point 42 :   0.2000 0.2000 0.0000  plane waves:    3085
 k-point 43 :   0.2667 0.2000 0.0000  plane waves:    3087
 k-point 44 :   0.3333 0.2000 0.0000  plane waves:    3067
 k-point 45 :   0.4000 0.2000 0.0000  plane waves:    3061
 k-point 46 :   0.4667 0.2000 0.0000  plane waves:    3067
 k-point 47 :  -0.4667 0.2000 0.0000  plane waves:    3079
 k-point 48 :  -0.4000 0.2000 0.0000  plane waves:    3087
 k-point 49 :  -0.3333 0.2000 0.0000  plane waves:    3093
 k-point 50 :  -0.2667 0.2000 0.0000  plane waves:    3076
 k-point 51 :  -0.2000 0.2000 0.0000  plane waves:    3070
 k-point 52 :  -0.1333 0.2000 0.0000  plane waves:    3093
 k-point 53 :  -0.0667 0.2000 0.0000  plane waves:    3091
 k-point 54 :   0.0000 0.2667 0.0000  plane waves:    3074
 k-point 55 :   0.0667 0.2667 0.0000  plane waves:    3069
 k-point 56 :   0.1333 0.2667 0.0000  plane waves:    3080
 k-point 57 :   0.2000 0.2667 0.0000  plane waves:    3085
 k-point 58 :   0.2667 0.2667 0.0000  plane waves:    3069
 k-point 59 :   0.3333 0.2667 0.0000  plane waves:    3049
 k-point 60 :   0.4000 0.2667 0.0000  plane waves:    3047
 k-point 61 :   0.4667 0.2667 0.0000  plane waves:    3069
 k-point 62 :  -0.4667 0.2667 0.0000  plane waves:    3085
 k-point 63 :  -0.4000 0.2667 0.0000  plane waves:    3076
 k-point 64 :  -0.3333 0.2667 0.0000  plane waves:    3082
 k-point 65 :  -0.2667 0.2667 0.0000  plane waves:    3070
 k-point 66 :  -0.2000 0.2667 0.0000  plane waves:    3079
 k-point 67 :  -0.1333 0.2667 0.0000  plane waves:    3089
 k-point 68 :  -0.0667 0.2667 0.0000  plane waves:    3085
 k-point 69 :   0.0000 0.3333 0.0000  plane waves:    3078
 k-point 70 :   0.0667 0.3333 0.0000  plane waves:    3091
 k-point 71 :   0.1333 0.3333 0.0000  plane waves:    3085
 k-point 72 :   0.2000 0.3333 0.0000  plane waves:    3065
 k-point 73 :   0.2667 0.3333 0.0000  plane waves:    3034
 k-point 74 :   0.3333 0.3333 0.0000  plane waves:    3067
 k-point 75 :   0.4000 0.3333 0.0000  plane waves:    3038
 k-point 76 :   0.4667 0.3333 0.0000  plane waves:    3069
 k-point 77 :  -0.4667 0.3333 0.0000  plane waves:    3085
 k-point 78 :  -0.4000 0.3333 0.0000  plane waves:    3087
 k-point 79 :  -0.3333 0.3333 0.0000  plane waves:    3078
 k-point 80 :  -0.2667 0.3333 0.0000  plane waves:    3069
 k-point 81 :  -0.2000 0.3333 0.0000  plane waves:    3084
 k-point 82 :  -0.1333 0.3333 0.0000  plane waves:    3080
 k-point 83 :  -0.0667 0.3333 0.0000  plane waves:    3075
 k-point 84 :   0.0000 0.4000 0.0000  plane waves:    3094
 k-point 85 :   0.0667 0.4000 0.0000  plane waves:    3092
 k-point 86 :   0.1333 0.4000 0.0000  plane waves:    3067
 k-point 87 :   0.2000 0.4000 0.0000  plane waves:    3050
 k-point 88 :   0.2667 0.4000 0.0000  plane waves:    3040
 k-point 89 :   0.3333 0.4000 0.0000  plane waves:    3044
 k-point 90 :   0.4000 0.4000 0.0000  plane waves:    3057
 k-point 91 :   0.4667 0.4000 0.0000  plane waves:    3065
 k-point 92 :  -0.4667 0.4000 0.0000  plane waves:    3092
 k-point 93 :  -0.4000 0.4000 0.0000  plane waves:    3098
 k-point 94 :  -0.3333 0.4000 0.0000  plane waves:    3087
 k-point 95 :  -0.2667 0.4000 0.0000  plane waves:    3087
 k-point 96 :  -0.2000 0.4000 0.0000  plane waves:    3093
 k-point 97 :  -0.1333 0.4000 0.0000  plane waves:    3081
 k-point 98 :  -0.0667 0.4000 0.0000  plane waves:    3087
 k-point 99 :   0.0000 0.4667 0.0000  plane waves:    3084
 k-point ** :   0.0667 0.4667 0.0000  plane waves:    3078
 k-point ** :   0.1333 0.4667 0.0000  plane waves:    3073
 k-point ** :   0.2000 0.4667 0.0000  plane waves:    3065
 k-point ** :   0.2667 0.4667 0.0000  plane waves:    3071
 k-point ** :   0.3333 0.4667 0.0000  plane waves:    3063
 k-point ** :   0.4000 0.4667 0.0000  plane waves:    3073
 k-point ** :   0.4667 0.4667 0.0000  plane waves:    3081
 k-point ** :  -0.4667 0.4667 0.0000  plane waves:    3096
 k-point ** :  -0.4000 0.4667 0.0000  plane waves:    3090
 k-point ** :  -0.3333 0.4667 0.0000  plane waves:    3081
 k-point ** :  -0.2667 0.4667 0.0000  plane waves:    3083
 k-point ** :  -0.2000 0.4667 0.0000  plane waves:    3079
 k-point ** :  -0.1333 0.4667 0.0000  plane waves:    3077
 k-point ** :  -0.0667 0.4667 0.0000  plane waves:    3086

 maximum and minimum number of plane-waves per node :      3117     3034

 maximum number of plane-waves:      3117
 maximum index in each direction: 
   IXMAX=    5   IYMAX=    4   IZMAX=   38
   IXMIN=   -5   IYMIN=   -5   IZMIN=  -38


 serial   3D FFT for wavefunctions
 parallel 3D FFT for charge:
    minimum data exchange during FFTs selected (reduces bandwidth)


 total amount of memory used by VASP MPI-rank0    64267. kBytes
=======================================================================

   base      :      30000. kBytes
   nonl-proj :      22663. kBytes
   fftplans  :       1512. kBytes
   grid      :       4417. kBytes
   one-center:          6. kBytes
   wavefun   :       5669. kBytes
 
     INWAV:  cpu time    0.1237: real time    0.1237
 initial charge density was supplied:
 number of electron       8.0000000 magnetization 
 keeping initial charge density in first step


--------------------------------------------------------------------------------------------------------


 Maximum index for augmentation-charges          474 (set IRDMAX)


--------------------------------------------------------------------------------------------------------


 First call to EWALD:  gamma=   0.376
 Maximum number of real-space cells 5x 5x 1
 Maximum number of reciprocal cells 2x 2x10

    FEWALD:  cpu time    0.0009: real time    0.0009


--------------------------------------- Iteration      1(   1)  ---------------------------------------


    POTLOK:  cpu time    0.0162: real time    0.0162
    SETDIJ:  cpu time    0.0009: real time    0.0009
     EDDAV:  cpu time    1.2096: real time    1.2097
 BZINTS: Fermi energy: -2.693417;  8.000000 electrons
         Band energy: -94.765109;  BLOECHL correction:  0.000000
       DOS:  cpu time    0.0186: real time    0.0186
    --------------------------------------------
      LOOP:  cpu time    1.2453: real time    1.2454

 eigenvalue-minimisations  :  4800
 total energy-change (2. order) :-0.1812871E+02  (-0.4745076E+02)
 number of electron       8.0000000 magnetization 
 augmentation part        8.0000000 magnetization 

 Free energy of the ion-electron system (eV)
  ---------------------------------------------------
  alpha Z        PSCENC =         3.12520022
  Ewald energy   TEWEN  =      1297.56265207
  -Hartree energ DENC   =     -1544.54214840
  -exchange      EXHF   =         0.00000000
  -V(xc)+E(xc)   XCENC  =        27.55985436
  PAW double counting   =       835.55467392     -836.92263488
  entropy T*S    EENTRO =         0.00000000
  eigenvalues    EBANDS =       -94.76510927
  atomic energy  EATOM  =       294.29880157
  Solvation  Ediel_sol  =         0.00000000
  ---------------------------------------------------
  free energy    TOTEN  =       -18.12871042 eV

  energy without entropy =      -18.12871042  energy(sigma->0) =      -18.12871042


--------------------------------------------------------------------------------------------------------




--------------------------------------- Iteration      1(   2)  ---------------------------------------


     EDDAV:  cpu time    1.1913: real time    1.1914
 BZINTS: Fermi energy: -2.756807;  8.000000 electrons
         Band energy: -95.081262;  BLOECHL correction:  0.000000
       DOS:  cpu time    0.0188: real time    0.0188
    --------------------------------------------
      LOOP:  cpu time    1.2101: real time    1.2103

 eigenvalue-minimisations  :  5152
 total energy-change (2. order) :-0.3161531E+00  (-0.3161531E+00)
 number of electron       8.0000000 magnetization 
 augmentation part        8.0000000 magnetization 

 Free energy of the ion-electron system (eV)
  ---------------------------------------------------
  alpha Z        PSCENC =         3.12520022
  Ewald energy   TEWEN  =      1297.56265207
  -Hartree energ DENC   =     -1544.54214840
  -exchange      EXHF   =         0.00000000
  -V(xc)+E(xc)   XCENC  =        27.55985436
  PAW double counting   =       835.55467392     -836.92263488
  entropy T*S    EENTRO =         0.00000000
  eigenvalues    EBANDS =       -95.08126234
  atomic energy  EATOM  =       294.29880157
  Solvation  Ediel_sol  =         0.00000000
  ---------------------------------------------------
  free energy    TOTEN  =       -18.44486349 eV

  energy without entropy =      -18.44486349  energy(sigma->0) =      -18.44486349


--------------------------------------------------------------------------------------------------------




--------------------------------------- Iteration      1(   3)  ---------------------------------------


     EDDAV:  cpu time    1.2640: real time    1.2641
 BZINTS: Fermi energy: -2.759604;  8.000000 electrons
         Band energy: -95.082050;  BLOECHL correction:  0.000000
       DOS:  cpu time    0.0184: real time    0.0184
    --------------------------------------------
      LOOP:  cpu time    1.2824: real time    1.2826

 eigenvalue-minimisations  :  4800
 total energy-change (2. order) :-0.7872016E-03  (-0.7872016E-03)
 number of electron       8.0000000 magnetization 
 augmentation part        8.0000000 magnetization 

 Free energy of the ion-electron system (eV)
  ---------------------------------------------------
  alpha Z        PSCENC =         3.12520022
  Ewald energy   TEWEN  =      1297.56265207
  -Hartree energ DENC   =     -1544.54214840
  -exchange      EXHF   =         0.00000000
  -V(xc)+E(xc)   XCENC  =        27.55985436
  PAW double counting   =       835.55467392     -836.92263488
  entropy T*S    EENTRO =         0.00000000
  eigenvalues    EBANDS =       -95.08204954
  atomic energy  EATOM  =       294.29880157
  Solvation  Ediel_sol  =         0.00000000
  ---------------------------------------------------
  free energy    TOTEN  =       -18.44565069 eV

  energy without entropy =      -18.44565069  energy(sigma->0) =      -18.44565069


--------------------------------------------------------------------------------------------------------




--------------------------------------- Iteration      1(   4)  ---------------------------------------


     EDDAV:  cpu time    1.3235: real time    1.3236
 BZINTS: Fermi energy: -2.757101;  8.000000 electrons
         Band energy: -95.082054;  BLOECHL correction:  0.000000
       DOS:  cpu time    0.0185: real time    0.0185
    --------------------------------------------
      LOOP:  cpu time    1.3420: real time    1.3421

 eigenvalue-minimisations  :  4720
 total energy-change (2. order) :-0.4201659E-05  (-0.4201659E-05)
 number of electron       8.0000000 magnetization 
 augmentation part        8.0000000 magnetization 

 Free energy of the ion-electron system (eV)
  ---------------------------------------------------
  alpha Z        PSCENC =         3.12520022
  Ewald energy   TEWEN  =      1297.56265207
  -Hartree energ DENC   =     -1544.54214840
  -exchange      EXHF   =         0.00000000
  -V(xc)+E(xc)   XCENC  =        27.55985436
  PAW double counting   =       835.55467392     -836.92263488
  entropy T*S    EENTRO =         0.00000000
  eigenvalues    EBANDS =       -95.08205374
  atomic energy  EATOM  =       294.29880157
  Solvation  Ediel_sol  =         0.00000000
  ---------------------------------------------------
  free energy    TOTEN  =       -18.44565489 eV

  energy without entropy =      -18.44565489  energy(sigma->0) =      -18.44565489


--------------------------------------------------------------------------------------------------------




--------------------------------------- Iteration      1(   5)  ---------------------------------------


     EDDAV:  cpu time    1.2722: real time    1.2723
 BZINTS: Fermi energy: -2.761020;  8.000000 electrons
         Band energy: -95.082054;  BLOECHL correction:  0.000000
       DOS:  cpu time    0.0185: real time    0.0185
    --------------------------------------------
      LOOP:  cpu time    1.2907: real time    1.2908

 eigenvalue-minimisations  :  5184
 total energy-change (2. order) :-0.5839729E-07  (-0.5839696E-07)
 number of electron       8.0000000 magnetization 
 augmentation part        8.0000000 magnetization 

 Free energy of the ion-electron system (eV)
  ---------------------------------------------------
  alpha Z        PSCENC =         3.12520022
  Ewald energy   TEWEN  =      1297.56265207
  -Hartree energ DENC   =     -1544.54214840
  -exchange      EXHF   =         0.00000000
  -V(xc)+E(xc)   XCENC  =        27.55985436
  PAW double counting   =       835.55467392     -836.92263488
  entropy T*S    EENTRO =         0.00000000
  eigenvalues    EBANDS =       -95.08205380
  atomic energy  EATOM  =       294.29880157
  Solvation  Ediel_sol  =         0.00000000
  ---------------------------------------------------
  free energy    TOTEN  =       -18.44565495 eV

  energy without entropy =      -18.44565495  energy(sigma->0) =      -18.44565495


--------------------------------------------------------------------------------------------------------




 average (electrostatic) potential at core
  the test charge radii are     0.6991
  (the norm of the test charge is              1.0000)
       1 -58.1714       2 -58.1714
 
 
 
 E-fermi :  -2.7610     XC(G=0):  -2.1582     alpha+bet : -1.9065


 k-point     1 :       0.0000    0.0000    0.0000
  band No.  band energies     occupation 
      1     -22.2745      2.00000
      2     -10.3732      2.00000
      3      -5.7740      2.00000
      4      -5.7612      2.00000
      5       0.5212      0.00000
      6       1.3202      0.00000
      7       1.6827      0.00000
      8       2.5931      0.00000
      9       3.0519      0.00000
     10       4.7230      0.00000
     11       5.3345      0.00000
     12       5.5485      0.00000
     13       5.6459      0.00000
     14       7.6687      0.00000
     15       8.4683      0.00000
     16       8.7069      0.00000

 k-point     2 :       0.0667   -0.0000    0.0000
  band No.  band energies     occupation 
      1     -22.1696      2.00000
      2     -10.2481      2.00000
      3      -6.2014      2.00000
      4      -5.9820      2.00000
      5       0.6634      0.00000
      6       1.4643      0.00000
      7       1.8286      0.00000
      8       2.7377      0.00000
      9       3.1960      0.00000
     10       4.8662      0.00000
     11       5.4576      0.00000
     12       5.6430      0.00000
     13       6.0888      0.00000
     14       7.8092      0.00000
     15       8.3417      0.00000
     16       8.6132      0.00000

 k-point     3 :       0.1333   -0.0000    0.0000
  band No.  band energies     occupation 
      1     -21.8558      2.00000
      2      -9.8747      2.00000
      3      -7.3366      2.00000
      4      -6.5399      2.00000
      5       1.0902      0.00000
      6       1.8962      0.00000
      7       2.2662      0.00000
      8       3.1710      0.00000
      9       3.6284      0.00000
     10       5.2943      0.00000
     11       5.6393      0.00000
     12       5.9497      0.00000
     13       7.3225      0.00000
     14       7.3236      0.00000
     15       8.2316      0.00000
     16       9.0448      0.00000

 k-point     4 :       0.2000   -0.0000    0.0000
  band No.  band energies     occupation 
      1     -21.3352      2.00000
      2      -9.2601      2.00000
      3      -8.8899      2.00000
      4      -7.2385      2.00000
      5       1.8011      0.00000
      6       2.6133      0.00000
      7       2.9956      0.00000
      8       3.8904      0.00000
      9       4.3474      0.00000
     10       5.5542      0.00000
     11       5.7982      0.00000
     12       6.0469      0.00000
     13       6.6432      0.00000
     14       8.9294      0.00000
     15       9.1183      0.00000
     16       9.7575      0.00000

 k-point     5 :       0.2667   -0.0000    0.0000
  band No.  band energies     occupation 
      1     -20.6121      2.00000
      2     -10.6246      2.00000
      3      -8.4196      2.00000
      4      -7.9190      2.00000
      5       2.7939      0.00000
      6       3.5666      0.00000
      7       4.0163      0.00000
      8       4.0894      0.00000
      9       4.9228      0.00000
     10       5.2425      0.00000
     11       5.4462      0.00000
     12       7.0115      0.00000
     13       7.6388      0.00000
     14       9.8946      0.00000
     15      10.7490      0.00000
     16      11.2578      0.00000

 k-point     6 :       0.3333   -0.0000    0.0000
  band No.  band energies     occupation 
      1     -19.6944      2.00000
      2     -12.3893      2.00000
      3      -8.4856      2.00000
      4      -7.3866      2.00000
      5       2.1659      0.00000
      6       4.0597      0.00000
      7       4.9302      0.00000
      8       5.0690      0.00000
      9       5.3379      0.00000
     10       6.2066      0.00000
     11       6.6715      0.00000
     12       8.2813      0.00000
     13       8.9205      0.00000
     14      11.0986      0.00000
     15      12.0138      0.00000
     16      13.0453      0.00000

 k-point     7 :       0.4000   -0.0000    0.0000
  band No.  band energies     occupation 
      1     -18.5989      2.00000
      2     -14.0852      2.00000
      3      -8.8855      2.00000
      4      -6.2485      2.00000
      5       0.4210      0.00000
      6       4.8481      0.00000
      7       5.6438      0.00000
      8       6.4906      0.00000
      9       6.9358      0.00000
     10       7.7809      0.00000
     11       8.2514      0.00000
     12       9.8067      0.00000
     13      10.4791      0.00000
     14      11.6059      0.00000
     15      12.2170      0.00000
     16      12.9094      0.00000

 k-point     8 :       0.4667   -0.0000    0.0000
  band No.  band energies     occupation 
      1     -17.4077      2.00000
      2     -15.5861      2.00000
      3      -9.0913      2.00000
      4      -5.2999      2.00000
      5      -0.8504      0.00000
      6       4.7568      0.00000
      7       7.4396      0.00000
      8       8.3128      0.00000
      9       8.8292      0.00000
     10       9.4807      0.00000
     11       9.6144      0.00000
     12      10.1146      0.00000
     13      10.3656      0.00000
     14      11.0116      0.00000
     15      11.5033      0.00000
     16      11.8328      0.00000

 k-point     9 :       0.0000    0.0667    0.0000
  band No.  band energies     occupation 
      1     -22.1689      2.00000
      2     -10.2471      2.00000
      3      -6.1839      2.00000
      4      -5.9987      2.00000
      5       0.6645      0.00000
      6       1.4653      0.00000
      7       1.8296      0.00000
      8       2.7387      0.00000
      9       3.1971      0.00000
     10       4.8672      0.00000
     11       5.4638      0.00000
     12       5.6874      0.00000
     13       6.0124      0.00000
     14       7.8103      0.00000
     15       8.3432      0.00000
     16       8.6141      0.00000

 k-point    10 :       0.0667    0.0667    0.0000
  band No.  band energies     occupation 
      1     -21.9591      2.00000
      2      -9.9973      2.00000
      3      -6.9187      2.00000
      4      -6.4356      2.00000
      5       0.9496      0.00000
      6       1.7539      0.00000
      7       2.1219      0.00000
      8       3.0282      0.00000
      9       3.4860      0.00000
     10       5.1535      0.00000
     11       5.6983      0.00000
     12       5.8923      0.00000
     13       6.7259      0.00000
     14       7.6568      0.00000
     15       8.0912      0.00000
     16       8.9032      0.00000

 k-point    11 :       0.1333    0.0667    0.0000
  band No.  band energies     occupation 
      1     -21.5415      2.00000
      2      -9.5025      2.00000
      3      -8.1829      2.00000
      4      -7.1462      2.00000
      5       1.5193      0.00000
      6       2.3294      0.00000
      7       2.7060      0.00000
      8       3.6058      0.00000
      9       4.0633      0.00000
     10       5.7220      0.00000
     11       5.9473      0.00000
     12       6.3804      0.00000
     13       6.4257      0.00000
     14       7.8915      0.00000
     15       8.6496      0.00000
     16       9.4769      0.00000

 k-point    12 :       0.2000    0.0667    0.0000
  band No.  band energies     occupation 
      1     -20.9193      2.00000
      2      -9.7724      2.00000
      3      -8.7733      2.00000
      4      -7.8923      2.00000
      5       2.3723      0.00000
      6       3.1853      0.00000
      7       3.5818      0.00000
      8       4.4532      0.00000
      9       4.8442      0.00000
     10       4.9257      0.00000
     11       5.8799      0.00000
     12       6.5829      0.00000
     13       7.2169      0.00000
     14       9.4774      0.00000
     15       9.5156      0.00000
     16      10.3328      0.00000

 k-point    13 :       0.2667    0.0667    0.0000
  band No.  band energies     occupation 
      1     -20.0984      2.00000
      2     -11.4925      2.00000
      3      -8.5468      2.00000
      4      -7.8317      2.00000
      5       3.0037      0.00000
      6       3.5054      0.00000
      7       4.3609      0.00000
      8       4.7484      0.00000
      9       5.6307      0.00000
     10       5.6343      0.00000
     11       6.1119      0.00000
     12       7.7124      0.00000
     13       8.3544      0.00000
     14      10.5511      0.00000
     15      11.2792      0.00000
     16      11.4925      0.00000

 k-point    14 :       0.3333    0.0667    0.0000
  band No.  band energies     occupation 
      1     -19.0899      2.00000
      2     -13.2089      2.00000
      3      -9.0460      2.00000
      4      -6.7294      2.00000
      5       1.2185      0.00000
      6       4.8988      0.00000
      7       5.4459      0.00000
      8       5.7755      0.00000
      9       6.2116      0.00000
     10       7.0623      0.00000
     11       7.5371      0.00000
     12       9.1025      0.00000
     13       9.7749      0.00000
     14      11.7582      0.00000
     15      12.1970      0.00000
     16      12.8678      0.00000

 k-point    15 :       0.4000    0.0667    0.0000
  band No.  band energies     occupation 
      1     -17.9258      2.00000
      2     -14.8202      2.00000
      3      -9.3569      2.00000
      4      -5.6203      2.00000
      5      -0.3417      0.00000
      6       5.2617      0.00000
      7       6.6149      0.00000
      8       7.4615      0.00000
      9       7.9597      0.00000
     10       8.7632      0.00000
     11       9.2573      0.00000
     12      10.6064      0.00000
     13      10.6437      0.00000
     14      11.4689      0.00000
     15      11.5076      0.00000
     16      12.3451      0.00000

 k-point    16 :       0.4667    0.0667    0.0000
  band No.  band energies     occupation 
      1     -16.9875      2.00000
      2     -15.9102      2.00000
      3      -9.4632      2.00000
      4      -5.0399      2.00000
      5      -1.0784      0.00000
      6       5.2142      0.00000
      7       8.4488      0.00000
      8       8.6148      0.00000
      9       9.2164      0.00000
     10       9.5180      0.00000
     11       9.9878      0.00000
     12      10.0009      0.00000
     13      10.6113      0.00000
     14      10.8460      0.00000
     15      11.2238      0.00000
     16      11.2671      0.00000

 k-point    17 :      -0.4667    0.0667    0.0000
  band No.  band energies     occupation 
      1     -17.9307      2.00000
      2     -14.8133      2.00000
      3      -9.3602      2.00000
      4      -5.6242      2.00000
      5      -0.3370      0.00000
      6       5.2638      0.00000
      7       6.6083      0.00000
      8       7.4546      0.00000
      9       7.9528      0.00000
     10       8.7563      0.00000
     11       9.2503      0.00000
     12      10.6191      0.00000
     13      10.6377      0.00000
     14      11.4617      0.00000
     15      11.5126      0.00000
     16      12.3181      0.00000

 k-point    18 :      -0.4000    0.0667    0.0000
  band No.  band energies     occupation 
      1     -19.0942      2.00000
      2     -13.2005      2.00000
      3      -9.0526      2.00000
      4      -6.7341      2.00000
      5       1.2242      0.00000
      6       4.8926      0.00000
      7       5.4506      0.00000
      8       5.7695      0.00000
      9       6.2059      0.00000
     10       7.0564      0.00000
     11       7.5314      0.00000
     12       9.0964      0.00000
     13       9.7691      0.00000
     14      11.7514      0.00000
     15      12.2467      0.00000
     16      12.8627      0.00000

 k-point    19 :      -0.3333    0.0667    0.0000
  band No.  band energies     occupation 
      1     -20.1019      2.00000
      2     -11.4830      2.00000
      3      -8.5564      2.00000
      4      -7.8359      2.00000
      5       3.0087      0.00000
      6       3.5005      0.00000
      7       4.3559      0.00000
      8       4.7436      0.00000
      9       5.6258      0.00000
     10       5.6387      0.00000
     11       6.1082      0.00000
     12       7.7074      0.00000
     13       8.3499      0.00000
     14      10.5456      0.00000
     15      11.3486      0.00000
     16      11.5156      0.00000

 k-point    20 :      -0.2667    0.0667    0.0000
  band No.  band energies     occupation 
      1     -20.9220      2.00000
      2      -9.7622      2.00000
      3      -8.7767      2.00000
      4      -7.9038      2.00000
      5       2.3685      0.00000
      6       3.1818      0.00000
      7       3.5781      0.00000
      8       4.4503      0.00000
      9       4.8460      0.00000
     10       4.9218      0.00000
     11       5.8825      0.00000
     12       6.5789      0.00000
     13       7.2136      0.00000
     14       9.4733      0.00000
     15       9.6025      0.00000
     16      10.3299      0.00000

 k-point    21 :      -0.2000    0.0667    0.0000
  band No.  band energies     occupation 
      1     -21.5435      2.00000
      2      -9.5050      2.00000
      3      -8.1745      2.00000
      4      -7.1564      2.00000
      5       1.5165      0.00000
      6       2.3267      0.00000
      7       2.7034      0.00000
      8       3.6032      0.00000
      9       4.0606      0.00000
     10       5.7196      0.00000
     11       5.9394      0.00000
     12       6.3784      0.00000
     13       6.4256      0.00000
     14       7.9687      0.00000
     15       8.6468      0.00000
     16       9.4745      0.00000

 k-point    22 :      -0.1333    0.0667    0.0000
  band No.  band energies     occupation 
      1     -21.9603      2.00000
      2      -9.9988      2.00000
      3      -6.9187      2.00000
      4      -6.4368      2.00000
      5       0.9479      0.00000
      6       1.7523      0.00000
      7       2.1203      0.00000
      8       3.0267      0.00000
      9       3.4843      0.00000
     10       5.1520      0.00000
     11       5.6870      0.00000
     12       5.8790      0.00000
     13       6.7920      0.00000
     14       7.6554      0.00000
     15       8.0896      0.00000
     16       8.9018      0.00000

 k-point    23 :      -0.0667    0.0667    0.0000
  band No.  band energies     occupation 
      1     -22.1693      2.00000
      2     -10.2476      2.00000
      3      -6.1929      2.00000
      4      -5.9901      2.00000
      5       0.6639      0.00000
      6       1.4648      0.00000
      7       1.8290      0.00000
      8       2.7382      0.00000
      9       3.1965      0.00000
     10       4.8666      0.00000
     11       5.4607      0.00000
     12       5.6614      0.00000
     13       6.0548      0.00000
     14       7.8097      0.00000
     15       8.3424      0.00000
     16       8.6137      0.00000

 k-point    24 :       0.0000    0.1333    0.0000
  band No.  band energies     occupation 
      1     -21.8528      2.00000
      2      -9.8707      2.00000
      3      -7.3072      2.00000
      4      -6.5695      2.00000
      5       1.0944      0.00000
      6       1.9003      0.00000
      7       2.2703      0.00000
      8       3.1751      0.00000
      9       3.6326      0.00000
     10       5.2986      0.00000
     11       5.6214      0.00000
     12       5.9486      0.00000
     13       7.2640      0.00000
     14       7.3306      0.00000
     15       8.2348      0.00000
     16       9.0485      0.00000

 k-point    25 :       0.0667    0.1333    0.0000
  band No.  band energies     occupation 
      1     -21.5393      2.00000
      2      -9.4995      2.00000
      3      -8.1534      2.00000
      4      -7.1781      2.00000
      5       1.5223      0.00000
      6       2.3325      0.00000
      7       2.7091      0.00000
      8       3.6089      0.00000
      9       4.0664      0.00000
     10       5.7261      0.00000
     11       5.9034      0.00000
     12       6.3783      0.00000
     13       6.4308      0.00000
     14       7.9106      0.00000
     15       8.6520      0.00000
     16       9.4798      0.00000

 k-point    26 :       0.1333    0.1333    0.0000
  band No.  band energies     occupation 
      1     -21.0201      2.00000
      2      -9.2691      2.00000
      3      -8.8892      2.00000
      4      -8.1240      2.00000
      5       2.2347      0.00000
      6       3.0501      0.00000
      7       3.4397      0.00000
      8       4.3297      0.00000
      9       4.7893      0.00000
     10       5.1249      0.00000
     11       6.4361      0.00000
     12       6.5990      0.00000
     13       7.1065      0.00000
     14       8.2932      0.00000
     15       9.3349      0.00000
     16      10.1940      0.00000

 k-point    27 :       0.2000    0.1333    0.0000
  band No.  band energies     occupation 
      1     -20.2999      2.00000
      2     -10.6806      2.00000
      3      -9.0096      2.00000
      4      -8.0549      2.00000
      5       3.2290      0.00000
      6       3.5559      0.00000
      7       4.0601      0.00000
      8       4.4619      0.00000
      9       5.3366      0.00000
     10       5.7979      0.00000
     11       6.9147      0.00000
     12       7.4188      0.00000
     13       8.0818      0.00000
     14       9.3033      0.00000
     15      10.2539      0.00000
     16      11.1869      0.00000

 k-point    28 :       0.2667    0.1333    0.0000
  band No.  band energies     occupation 
      1     -19.3872      2.00000
      2     -12.2764      2.00000
      3      -9.6741      2.00000
      4      -7.0281      2.00000
      5       1.8851      0.00000
      6       4.5008      0.00000
      7       5.3309      0.00000
      8       5.7749      0.00000
      9       6.6213      0.00000
     10       6.7586      0.00000
     11       7.1292      0.00000
     12       8.6524      0.00000
     13       9.3526      0.00000
     14      10.8050      0.00000
     15      11.2657      0.00000
     16      12.4531      0.00000

 k-point    29 :       0.3333    0.1333    0.0000
  band No.  band energies     occupation 
      1     -18.3004      2.00000
      2     -13.8859      2.00000
      3     -10.1159      2.00000
      4      -5.8896      2.00000
      5       0.2582      0.00000
      6       6.0313      0.00000
      7       6.6140      0.00000
      8       6.8610      0.00000
      9       7.3827      0.00000
     10       8.1659      0.00000
     11       8.6891      0.00000
     12      10.0229      0.00000
     13      10.8938      0.00000
     14      11.4168      0.00000
     15      11.6726      0.00000
     16      13.3322      0.00000

 k-point    30 :       0.4000    0.1333    0.0000
  band No.  band energies     occupation 
      1     -17.1246      2.00000
      2     -15.3388      2.00000
      3     -10.3386      2.00000
      4      -4.9212      2.00000
      5      -0.9721      0.00000
      6       6.4872      0.00000
      7       7.8485      0.00000
      8       8.5402      0.00000
      9       9.2743      0.00000
     10       9.8000      0.00000
     11       9.8019      0.00000
     12      10.5038      0.00000
     13      10.5431      0.00000
     14      11.4339      0.00000
     15      11.5867      0.00000
     16      12.2635      0.00000

 k-point    31 :       0.4667    0.1333    0.0000
  band No.  band energies     occupation 
      1     -17.1337      2.00000
      2     -15.3275      2.00000
      3     -10.3416      2.00000
      4      -4.9265      2.00000
      5      -0.9663      0.00000
      6       6.4886      0.00000
      7       7.8337      0.00000
      8       8.5271      0.00000
      9       9.2596      0.00000
     10       9.7906      0.00000
     11       9.8222      0.00000
     12      10.5062      0.00000
     13      10.5280      0.00000
     14      11.4511      0.00000
     15      11.5896      0.00000
     16      12.2685      0.00000

 k-point    32 :      -0.4667    0.1333    0.0000
  band No.  band energies     occupation 
      1     -18.3097      2.00000
      2     -13.8702      2.00000
      3     -10.1248      2.00000
      4      -5.8989      2.00000
      5       0.2685      0.00000
      6       6.0176      0.00000
      7       6.6200      0.00000
      8       6.8482      0.00000
      9       7.3702      0.00000
     10       8.1532      0.00000
     11       8.6766      0.00000
     12      10.0107      0.00000
     13      10.8822      0.00000
     14      11.4672      0.00000
     15      11.6677      0.00000
     16      13.3335      0.00000

 k-point    33 :      -0.4000    0.1333    0.0000
  band No.  band energies     occupation 
      1     -19.3951      2.00000
      2     -12.2584      2.00000
      3      -9.6884      2.00000
      4      -7.0372      2.00000
      5       1.8947      0.00000
      6       4.4899      0.00000
      7       5.3200      0.00000
      8       5.7644      0.00000
      9       6.6106      0.00000
     10       6.7631      0.00000
     11       7.1213      0.00000
     12       8.6414      0.00000
     13       9.3425      0.00000
     14      10.9055      0.00000
     15      11.2540      0.00000
     16      12.4436      0.00000

 k-point    34 :      -0.3333    0.1333    0.0000
  band No.  band energies     occupation 
      1     -20.3062      2.00000
      2     -10.6625      2.00000
      3      -9.0266      2.00000
      4      -8.0626      2.00000
      5       3.2204      0.00000
      6       3.5622      0.00000
      7       4.0511      0.00000
      8       4.4535      0.00000
      9       5.3280      0.00000
     10       5.7891      0.00000
     11       6.9185      0.00000
     12       7.4101      0.00000
     13       8.0745      0.00000
     14       9.4121      0.00000
     15      10.2448      0.00000
     16      11.1792      0.00000

 k-point    35 :      -0.2667    0.1333    0.0000
  band No.  band energies     occupation 
      1     -21.0247      2.00000
      2      -9.2598      2.00000
      3      -8.8952      2.00000
      4      -8.1337      2.00000
      5       2.2282      0.00000
      6       3.0438      0.00000
      7       3.4333      0.00000
      8       4.3235      0.00000
      9       4.7828      0.00000
     10       5.1256      0.00000
     11       6.4297      0.00000
     12       6.6045      0.00000
     13       7.1034      0.00000
     14       8.3909      0.00000
     15       9.3284      0.00000
     16      10.1881      0.00000

 k-point    36 :      -0.2000    0.1333    0.0000
  band No.  band energies     occupation 
      1     -21.5424      2.00000
      2      -9.5036      2.00000
      3      -8.1602      2.00000
      4      -7.1719      2.00000
      5       1.5180      0.00000
      6       2.3282      0.00000
      7       2.7048      0.00000
      8       3.6047      0.00000
      9       4.0620      0.00000
     10       5.7216      0.00000
     11       5.9192      0.00000
     12       6.3773      0.00000
     13       6.4281      0.00000
     14       7.9765      0.00000
     15       8.6479      0.00000
     16       9.4759      0.00000

 k-point    37 :      -0.1333    0.1333    0.0000
  band No.  band energies     occupation 
      1     -21.8543      2.00000
      2      -9.8728      2.00000
      3      -7.3224      2.00000
      4      -6.5542      2.00000
      5       1.0922      0.00000
      6       1.8981      0.00000
      7       2.2682      0.00000
      8       3.1730      0.00000
      9       3.6304      0.00000
     10       5.2964      0.00000
     11       5.6309      0.00000
     12       5.9491      0.00000
     13       7.2934      0.00000
     14       7.3271      0.00000
     15       8.2331      0.00000
     16       9.0465      0.00000

 k-point    38 :      -0.0667    0.1333    0.0000
  band No.  band energies     occupation 
      1     -21.9581      2.00000
      2      -9.9959      2.00000
      3      -6.9177      2.00000
      4      -6.4354      2.00000
      5       0.9511      0.00000
      6       1.7553      0.00000
      7       2.1234      0.00000
      8       3.0297      0.00000
      9       3.4875      0.00000
     10       5.1550      0.00000
     11       5.7084      0.00000
     12       5.9074      0.00000
     13       6.6623      0.00000
     14       7.6583      0.00000
     15       8.0927      0.00000
     16       8.9046      0.00000

 k-point    39 :       0.0000    0.2000    0.0000
  band No.  band energies     occupation 
[...]
      5       1.2220      0.00000
      6       4.9114      0.00000
      7       5.3729      0.00000
      8       5.7908      0.00000
      9       6.2282      0.00000
     10       7.0782      0.00000
     11       7.5537      0.00000
     12       9.1173      0.00000
     13       9.7917      0.00000
     14      11.7681      0.00000
     15      12.2073      0.00000
     16      12.8836      0.00000

 k-point    95 :      -0.2667    0.4000    0.0000
  band No.  band energies     occupation 
      1     -19.3755      2.00000
      2     -12.2722      2.00000
      3      -9.6893      2.00000
      4      -7.0131      2.00000
      5       1.8838      0.00000
      6       4.5163      0.00000
      7       5.3453      0.00000
      8       5.7904      0.00000
      9       6.6361      0.00000
     10       6.6880      0.00000
     11       7.1387      0.00000
     12       8.6665      0.00000
     13       9.3677      0.00000
     14      10.7814      0.00000
     15      11.2766      0.00000
     16      12.4676      0.00000

 k-point    96 :      -0.2000    0.4000    0.0000
  band No.  band energies     occupation 
      1     -19.4741      2.00000
      2     -11.6943      2.00000
      3     -10.1929      2.00000
      4      -7.1131      2.00000
      5       2.1584      0.00000
      6       4.3800      0.00000
      7       5.1915      0.00000
      8       5.6485      0.00000
      9       6.4867      0.00000
     10       6.9705      0.00000
     11       8.0889      0.00000
     12       8.5094      0.00000
     13       9.2097      0.00000
     14       9.2471      0.00000
     15      11.0817      0.00000
     16      12.3282      0.00000

 k-point    97 :      -0.1333    0.4000    0.0000
  band No.  band energies     occupation 
      1     -19.3707      2.00000
      2     -12.2495      2.00000
      3      -9.7202      2.00000
      4      -7.0061      2.00000
      5       1.8917      0.00000
      6       4.5223      0.00000
      7       5.3502      0.00000
      8       5.7965      0.00000
      9       6.6150      0.00000
     10       6.6416      0.00000
     11       7.1420      0.00000
     12       8.6709      0.00000
     13       9.3739      0.00000
     14      10.8569      0.00000
     15      11.2768      0.00000
     16      12.4738      0.00000

 k-point    98 :      -0.0667    0.4000    0.0000
  band No.  band energies     occupation 
      1     -19.0672      2.00000
      2     -13.1765      2.00000
      3      -9.1097      2.00000
      4      -6.6980      2.00000
      5       1.2314      0.00000
      6       4.9168      0.00000
      7       5.3006      0.00000
      8       5.8016      0.00000
      9       6.2406      0.00000
     10       7.0896      0.00000
     11       7.5660      0.00000
     12       9.1271      0.00000
     13       9.8042      0.00000
     14      11.7720      0.00000
     15      12.2704      0.00000
     16      12.8958      0.00000

 k-point    99 :       0.0000    0.4667    0.0000
  band No.  band energies     occupation 
      1     -17.3574      2.00000
      2     -15.5781      2.00000
      3      -9.1639      2.00000
      4      -5.2412      2.00000
      5      -0.8570      0.00000
      6       4.5916      0.00000
      7       7.4877      0.00000
      8       8.3543      0.00000
      9       8.8786      0.00000
     10       9.5420      0.00000
     11       9.6567      0.00000
     12      10.1632      0.00000
     13      10.4160      0.00000
     14      11.0759      0.00000
     15      11.5421      0.00000
     16      11.8928      0.00000

 k-point   100 :       0.0667    0.4667    0.0000
  band No.  band energies     occupation 
      1     -16.9171      2.00000
      2     -15.9236      2.00000
      3      -9.5331      2.00000
      4      -4.9773      2.00000
      5      -1.0917      0.00000
      6       5.0452      0.00000
      7       8.5095      0.00000
      8       8.6621      0.00000
      9       9.2443      0.00000
     10       9.5748      0.00000
     11      10.0442      0.00000
     12      10.0561      0.00000
     13      10.6542      0.00000
     14      10.9023      0.00000
     15      11.2818      0.00000
     16      11.3198      0.00000

 k-point   101 :       0.1333    0.4667    0.0000
  band No.  band energies     occupation 
      1     -17.0764      2.00000
      2     -15.3350      2.00000
      3     -10.3994      2.00000
      4      -4.8660      2.00000
      5      -0.9877      0.00000
      6       6.3122      0.00000
      7       7.8930      0.00000
      8       8.5660      0.00000
      9       9.3203      0.00000
     10       9.8264      0.00000
     11       9.8617      0.00000
     12      10.5455      0.00000
     13      10.5882      0.00000
     14      11.4960      0.00000
     15      11.6281      0.00000
     16      12.3195      0.00000

 k-point   102 :       0.2000    0.4667    0.0000
  band No.  band energies     occupation 
      1     -17.3192      2.00000
      2     -14.3932      2.00000
      3     -11.4677      2.00000
      4      -4.8679      2.00000
      5      -0.7159      0.00000
      6       7.4524      0.00000
      7       7.9792      0.00000
      8       8.0980      0.00000
      9       8.8802      0.00000
     10       9.3246      0.00000
     11      10.1466      0.00000
     12      10.3778      0.00000
     13      10.8702      0.00000
     14      12.0837      0.00000
     15      12.3217      0.00000
     16      13.1227      0.00000

 k-point   103 :       0.2667    0.4667    0.0000
  band No.  band energies     occupation 
      1     -17.4114      2.00000
      2     -13.7675      2.00000
      3     -12.1412      2.00000
      4      -4.8871      2.00000
      5      -0.5738      0.00000
      6       7.3174      0.00000
      7       7.7452      0.00000
      8       8.7274      0.00000
      9       9.1282      0.00000
     10       9.8401      0.00000
     11      10.0248      0.00000
     12      10.1136      0.00000
     13      10.2053      0.00000
     14      12.0359      0.00000
     15      12.1945      0.00000
     16      14.3383      0.00000

 k-point   104 :       0.3333    0.4667    0.0000
  band No.  band energies     occupation 
      1     -17.3279      2.00000
      2     -14.4083      2.00000
      3     -11.4412      2.00000
      4      -4.8819      2.00000
      5      -0.7140      0.00000
      6       7.4466      0.00000
      7       7.9784      0.00000
      8       8.1878      0.00000
      9       8.8719      0.00000
     10       9.3211      0.00000
     11      10.1373      0.00000
     12      10.3737      0.00000
     13      10.8095      0.00000
     14      12.0694      0.00000
     15      12.3134      0.00000
     16      13.1509      0.00000

 k-point   105 :       0.4000    0.4667    0.0000
  band No.  band energies     occupation 
      1     -17.0969      2.00000
      2     -15.3427      2.00000
      3     -10.3662      2.00000
      4      -4.8922      2.00000
      5      -0.9823      0.00000
      6       6.4025      0.00000
      7       7.8769      0.00000
      8       8.5589      0.00000
      9       9.3034      0.00000
     10       9.8172      0.00000
     11       9.8208      0.00000
     12      10.5228      0.00000
     13      10.5720      0.00000
     14      11.4554      0.00000
     15      11.6049      0.00000
     16      12.2882      0.00000

 k-point   106 :       0.4667    0.4667    0.0000
  band No.  band energies     occupation 
      1     -16.9538      2.00000
      2     -15.9166      2.00000
      3      -9.4966      2.00000
      4      -5.0099      2.00000
      5      -1.0847      0.00000
      6       5.1331      0.00000
      7       8.4776      0.00000
      8       8.6377      0.00000
      9       9.2298      0.00000
     10       9.5453      0.00000
     11      10.0120      0.00000
     12      10.0302      0.00000
     13      10.6317      0.00000
     14      10.8731      0.00000
     15      11.2504      0.00000
     16      11.2935      0.00000

 k-point   107 :      -0.4667    0.4667    0.0000
  band No.  band energies     occupation 
      1     -17.3834      2.00000
      2     -15.5825      2.00000
      3      -9.1260      2.00000
      4      -5.2717      2.00000
      5      -0.8535      0.00000
      6       4.6776      0.00000
      7       7.4626      0.00000
      8       8.3327      0.00000
      9       8.8529      0.00000
     10       9.5100      0.00000
     11       9.6347      0.00000
     12      10.1379      0.00000
     13      10.3899      0.00000
     14      11.0424      0.00000
     15      11.5219      0.00000
     16      11.8616      0.00000

 k-point   108 :      -0.4000    0.4667    0.0000
  band No.  band energies     occupation 
      1     -17.9061      2.00000
      2     -14.8139      2.00000
      3      -9.3879      2.00000
      4      -5.5951      2.00000
      5      -0.3441      0.00000
      6       5.1816      0.00000
      7       6.6369      0.00000
      8       7.4819      0.00000
      9       7.9828      0.00000
     10       8.7842      0.00000
     11       9.2804      0.00000
     12      10.6328      0.00000
     13      10.6580      0.00000
     14      11.4919      0.00000
     15      11.5296      0.00000
     16      12.3380      0.00000

 k-point   109 :      -0.3333    0.4667    0.0000
  band No.  band energies     occupation 
      1     -18.2831      2.00000
      2     -13.8823      2.00000
      3     -10.1385      2.00000
      4      -5.8679      2.00000
      5       0.2533      0.00000
      6       6.0503      0.00000
      7       6.5332      0.00000
      8       6.8803      0.00000
      9       7.4042      0.00000
     10       8.1858      0.00000
     11       8.7106      0.00000
     12      10.0376      0.00000
     13      10.9165      0.00000
     14      11.4252      0.00000
     15      11.6783      0.00000
     16      13.3571      0.00000

 k-point   110 :      -0.2667    0.4667    0.0000
  band No.  band energies     occupation 
      1     -18.4751      2.00000
      2     -12.9853      2.00000
      3     -11.0086      2.00000
      4      -6.0177      2.00000
      5       0.6760      0.00000
      6       5.7899      0.00000
      7       6.5586      0.00000
      8       7.1137      0.00000
      9       7.8715      0.00000
     10       8.2742      0.00000
     11       8.4746      0.00000
     12       9.6556      0.00000
     13      10.2857      0.00000
     14      10.6794      0.00000
     15      11.3137      0.00000
     16      13.4514      0.00000

 k-point   111 :      -0.2000    0.4667    0.0000
  band No.  band energies     occupation 
      1     -18.4722      2.00000
      2     -12.9693      2.00000
      3     -11.0292      2.00000
      4      -6.0129      2.00000
      5       0.6787      0.00000
      6       5.7934      0.00000
      7       6.5609      0.00000
      8       7.1173      0.00000
      9       7.8742      0.00000
     10       8.2083      0.00000
     11       8.4616      0.00000
     12       9.6559      0.00000
     13      10.3610      0.00000
     14      10.6884      0.00000
     15      11.3126      0.00000
     16      13.4567      0.00000

 k-point   112 :      -0.1333    0.4667    0.0000
  band No.  band energies     occupation 
      1     -18.2739      2.00000
      2     -13.8624      2.00000
      3     -10.1724      2.00000
      4      -5.8538      2.00000
      5       0.2583      0.00000
      6       6.0555      0.00000
      7       6.4533      0.00000
      8       6.8885      0.00000
      9       7.4151      0.00000
     10       8.1947      0.00000
     11       8.7215      0.00000
     12      10.0413      0.00000
     13      10.9292      0.00000
     14      11.4861      0.00000
     15      11.6794      0.00000
     16      13.3852      0.00000

 k-point   113 :      -0.0667    0.4667    0.0000
  band No.  band energies     occupation 
      1     -17.8898      2.00000
      2     -14.7995      2.00000
      3      -9.4253      2.00000
      4      -5.5719      2.00000
      5      -0.3420      0.00000
      6       5.0967      0.00000
      7       6.6543      0.00000
      8       7.4970      0.00000
      9       8.0012      0.00000
     10       8.8001      0.00000
     11       9.2987      0.00000
     12      10.6673      0.00000
     13      10.6745      0.00000
     14      11.5098      0.00000
     15      11.5582      0.00000
     16      12.3802      0.00000


--------------------------------------------------------------------------------------------------------


 soft charge-density along one line, spin component           1
         0         1         2         3         4         5         6         7         8         9
 total charge-density along one line
 
 pseudopotential strength for first ion, spin component:           1
 10.218  13.588  -0.000  -0.000  -0.000   0.000   0.000   0.000
 13.588  18.070  -0.000  -0.000  -0.000   0.000   0.000   0.000
 -0.000  -0.000  -4.347  -0.000   0.000   8.502   0.000   0.000
 -0.000  -0.000  -0.000  -4.339  -0.000   0.000   8.492   0.000
 -0.000  -0.000   0.000  -0.000  -4.347   0.000   0.000   8.502
  0.000   0.000   8.502   0.000   0.000 -18.765  -0.000  -0.000
  0.000   0.000   0.000   8.492   0.000  -0.000 -18.756  -0.000
  0.000   0.000   0.000   0.000   8.502  -0.000  -0.000 -18.765
 total augmentation occupancy for first ion, spin component:           1
  2.000   0.000   0.000   0.000   0.000   0.000   0.000   0.000
  0.000   0.000   0.000   0.000   0.000   0.000   0.000   0.000
  0.000   0.000   0.667   0.000   0.000   0.000   0.000   0.000
  0.000   0.000   0.000   0.667   0.000   0.000   0.000   0.000
  0.000   0.000   0.000   0.000   0.667   0.000   0.000   0.000
  0.000   0.000   0.000   0.000   0.000   0.000   0.000   0.000
  0.000   0.000   0.000   0.000   0.000   0.000   0.000   0.000
  0.000   0.000   0.000   0.000   0.000   0.000   0.000   0.000


------------------------ aborting loop because EDIFF is reached ----------------------------------------


 


 total charge     
 
# of ion       s       p       d       tot
------------------------------------------
    1        0.863   1.789   0.000   2.652
    2        0.863   1.789   0.000   2.652
--------------------------------------------------
tot          1.726   3.579   0.000   5.305
 
    CHARGE:  cpu time    0.0896: real time    0.0896
    FORLOC:  cpu time    0.0004: real time    0.0004
    FORNL :  cpu time    0.0489: real time    0.0489
    STRESS:  cpu time    0.5596: real time    0.5597
    FORCOR:  cpu time    0.0157: real time    0.0157
    FORHAR:  cpu time    0.0032: real time    0.0032
    OFIELD:  cpu time    0.0000: real time    0.0001

  FORCE on cell =-STRESS in cart. coord.  units (eV):
  Direction    XX          YY          ZZ          XY          YZ          ZX
  --------------------------------------------------------------------------------------
  Alpha Z     3.12520     3.12520     3.12520
  Ewald    1566.39597  1566.95371 -1835.78708    -0.15278     0.00000     0.00000
  Hartree  1533.16746  1533.31396 -1521.93911    -0.04063    -0.00000    -0.00000
  E(xc)     -29.72509   -29.72552   -30.83929     0.00011     0.00000     0.00000
  Local   -3185.02257 -3185.68013  3255.17730     0.18093    -0.00000    -0.00000
  n-local    -7.12726    -7.18097    -6.50894     0.01459     0.00000    -0.00000
  augment    -0.78120    -0.78187    -0.71961     0.00018    -0.00000     0.00000
  Kinetic   120.12028   120.27217   137.47230    -0.04191    -0.00000     0.00000
  Fock        0.00000     0.00000     0.00000     0.00000     0.00000     0.00000
  -------------------------------------------------------------------------------------
  Total       0.15280     0.29654    -0.01922    -0.03952     0.00000     0.00000
  in kB       2.32848     4.51876    -0.29288    -0.60225     0.00000     0.00000
  external pressure =        2.18 kB  Pullay stress =        0.00 kB


 VOLUME and BASIS-vectors are now :
 -----------------------------------------------------------------------------
  energy-cutoff  :      550.00
  volume of cell :      105.14
      direct lattice vectors                 reciprocal lattice vectors
     2.468100000  0.000000000  0.000000000     0.405169969  0.233971390  0.000000000
    -1.230000000  2.130000000  0.000000000     0.000000000  0.469483568  0.000000000
     0.000000000  0.000000000 20.000000000     0.000000000  0.000000000  0.050000000

  length of vectors
     2.468100000  2.459634119 20.000000000     0.467873183  0.469483568  0.050000000


 FORCES acting on ions
    electron-ion (+dipol)            ewald-force                    non-local-force                 convergence-correction
 -----------------------------------------------------------------------------------------------
   0.468E+00 0.855E+00 0.265E-08   -.439E+00 -.801E+00 0.000E+00   0.577E-02 0.104E-01 0.000E+00   -.746E-02 -.136E-01 0.284E-11
   -.468E+00 -.855E+00 -.265E-08   0.439E+00 0.801E+00 0.000E+00   -.577E-02 -.104E-01 0.000E+00   0.746E-02 0.136E-01 0.299E-11
 -----------------------------------------------------------------------------------------------
   -.391E-13 0.794E-13 0.194E-11   0.433E-14 0.400E-14 0.000E+00   -.867E-18 0.000E+00 0.000E+00   -.641E-14 0.279E-13 0.583E-11
 
 
 POSITION                                       TOTAL-FORCE (eV/Angst)
 -----------------------------------------------------------------------------------
      0.00276      1.42010     10.00000         0.027558      0.050264      0.000000
      1.23534      0.70990     10.00000        -0.027558     -0.050264      0.000000
 -----------------------------------------------------------------------------------
    total drift:                               -0.000000      0.000000      0.000000


--------------------------------------------------------------------------------------------------------



  FREE ENERGIE OF THE ION-ELECTRON SYSTEM (eV)
  ---------------------------------------------------
  free  energy   TOTEN  =       -18.44565495 eV

  energy  without entropy=      -18.44565495  energy(sigma->0) =      -18.44565495
 


--------------------------------------------------------------------------------------------------------


    POTLOK:  cpu time    0.0164: real time    0.0164


--------------------------------------------------------------------------------------------------------


     LOOP+:  cpu time    7.1232: real time    7.1240
    4ORBIT:  cpu time    0.0000: real time    0.0000
 


 total charge     
 
# of ion       s       p       d       tot
------------------------------------------
    1        0.863   1.789   0.000   2.652
    2        0.863   1.789   0.000   2.652
--------------------------------------------------
tot          1.726   3.579   0.000   5.305
 
 BZINTS: Fermi energy: -2.761020;  8.000000 electrons
         Band energy: -95.082054;  BLOECHL correction:  0.000000

 total amount of memory used by VASP MPI-rank0    64267. kBytes
=======================================================================

   base      :      30000. kBytes
   nonl-proj :      22663. kBytes
   fftplans  :       1512. kBytes
   grid      :       4417. kBytes
   one-center:          6. kBytes
   wavefun   :       5669. kBytes
 
  
  
 General timing and accounting informations for this job:
 ========================================================
  
                  Total CPU time used (sec):        8.446
                            User time (sec):        7.978
                          System time (sec):        0.468
                         Elapsed time (sec):        9.077
  
                   Maximum memory used (kb):      165488.
                   Average memory used (kb):           0.
  
                          Minor page faults:        27434
                          Major page faults:         2719
                 Voluntary context switches:         1774
