PROCAR lm decomposed
# of k-points:  113         # of bands:   16         # of ions:    2

 k-point     1 :    0.00000000 0.00000000 0.00000000     weight = 0.00444444

band     1 # energy  -22.27449585 # occ.  2.00000000
 
ion      s     py     pz     px    dxy    dyz    dz2    dxz  x2-y2    tot
    1  0.322  0.000  0.000  0.000  0.000  0.000  0.000  0.000  0.000  0.322
    2  0.322  0.000  0.000  0.000  0.000  0.000  0.000  0.000  0.000  0.322
tot    0.643  0.000  0.000  0.000  0.000  0.000  0.000  0.000  0.000  0.643
 
band     2 # energy  -10.37323290 # occ.  2.00000000
 
ion      s     py     pz     px    dxy    dyz    dz2    dxz  x2-y2    tot
    1  0.000  0.000  0.216  0.000  0.000  0.000  0.000  0.000  0.000  0.216
    2  0.000  0.000  0.216  0.000  0.000  0.000  0.000  0.000  0.000  0.216
tot    0.000  0.000  0.431  0.000  0.000  0.000  0.000  0.000  0.000  0.431
 
band     3 # energy   -5.77402805 # occ.  2.00000000
 
ion      s     py     pz     px    dxy    dyz    dz2    dxz  x2-y2    tot
    1  0.000  0.027  0.000  0.385  0.000  0.000  0.000  0.000  0.000  0.411
    2  0.000  0.027  0.000  0.385  0.000  0.000  0.000  0.000  0.000  0.411
tot    0.000  0.054  0.000  0.769  0.000  0.000  0.000  0.000  0.000  0.823
 
band     4 # energy   -5.76118550 # occ.  2.00000000
 
ion      s     py     pz     px    dxy    dyz    dz2    dxz  x2-y2    tot
    1  0.000  0.386  0.000  0.027  0.000  0.000  0.000  0.000  0.000  0.413
    2  0.000  0.386  0.000  0.027  0.000  0.000  0.000  0.000  0.000  0.413
tot    0.000  0.772  0.000  0.054  0.000  0.000  0.000  0.000  0.000  0.826
 
band     5 # energy    0.52115276 # occ.  0.00000000
 
ion      s     py     pz     px    dxy    dyz    dz2    dxz  x2-y2    tot
    1  0.010  0.000  0.000  0.000  0.000  0.000  0.000  0.000  0.000  0.010
    2  0.010  0.000  0.000  0.000  0.000  0.000  0.000  0.000  0.000  0.010
tot    0.020  0.000  0.000  0.000  0.000  0.000  0.000  0.000  0.000  0.020
 
band     6 # energy    1.32016903 # occ.  0.00000000
 
ion      s     py     pz     px    dxy    dyz    dz2    dxz  x2-y2    tot
    1  0.000  0.000  0.011  0.000  0.000  0.000  0.000  0.000  0.000  0.011
    2  0.000  0.000  0.011  0.000  0.000  0.000  0.000  0.000  0.000  0.011
tot    0.000  0.000  0.023  0.000  0.000  0.000  0.000  0.000  0.000  0.023
 
band     7 # energy    1.68268195 # occ.  0.00000000
 
ion      s     py     pz     px    dxy    dyz    dz2    dxz  x2-y2    tot
    1  0.001  0.000  0.000  0.000  0.000  0.000  0.000  0.000  0.000  0.001
    2  0.001  0.000  0.000  0.000  0.000  0.000  0.000  0.000  0.000  0.001
tot    0.002  0.000  0.000  0.000  0.000  0.000  0.000  0.000  0.000  0.002
 
band     8 # energy    2.59312716 # occ.  0.00000000
 
ion      s     py     pz     px    dxy    dyz    dz2    dxz  x2-y2    tot
    1  0.000  0.000  0.008  0.000  0.000  0.000  0.000  0.000  0.000  0.008
    2  0.000  0.000  0.008  0.000  0.000  0.000  0.000  0.000  0.000  0.008
tot    0.000  0.000  0.016  0.000  0.000  0.000  0.000  0.000  0.000  0.016
 
band     9 # energy    3.05187363 # occ.  0.00000000
 
ion      s     py     pz     px    dxy    dyz    dz2    dxz  x2-y2    tot
    1  0.004  0.000  0.000  0.000  0.000  0.000  0.000  0.000  0.000  0.004
    2  0.004  0.000  0.000  0.000  0.000  0.000  0.000  0.000  0.000  0.004
tot    0.008  0.000  0.000  0.000  0.000  0.000  0.000  0.000  0.000  0.008
 
band    10 # energy    4.72304528 # occ.  0.00000000
 
ion      s     py     pz     px    dxy    dyz    dz2    dxz  x2-y2    tot
    1  0.000  0.000  0.013  0.000  0.000  0.000  0.000  0.000  0.000  0.013
    2  0.000  0.000  0.013  0.000  0.000  0.000  0.000  0.000  0.000  0.013
tot    0.000  0.000  0.025  0.000  0.000  0.000  0.000  0.000  0.000  0.025
 
band    11 # energy    5.33452839 # occ.  0.00000000
 
ion      s     py     pz     px    dxy    dyz    dz2    dxz  x2-y2    tot
    1  0.005  0.000  0.000  0.000  0.000  0.000  0.000  0.000  0.000  0.005
    2  0.005  0.000  0.000  0.000  0.000  0.000  0.000  0.000  0.000  0.005
tot    0.011  0.000  0.000  0.000  0.000  0.000  0.000  0.000  0.000  0.011
 
band    12 # energy    5.54847412 # occ.  0.00000000
 
ion      s     py     pz     px    dxy    dyz    dz2    dxz  x2-y2    tot
    1  0.000  0.017  0.000  0.245  0.000  0.000  0.000  0.000  0.000  0.262
    2  0.000  0.017  0.000  0.245  0.000  0.000  0.000  0.000  0.000  0.262
tot    0.000  0.035  0.000  0.490  0.000  0.000  0.000  0.000  0.000  0.524
 
band    13 # energy    5.64587100 # occ.  0.00000000
 
ion      s     py     pz     px    dxy    dyz    dz2    dxz  x2-y2    tot
    1  0.000  0.245  0.000  0.017  0.000  0.000  0.000  0.000  0.000  0.263
    2  0.000  0.245  0.000  0.017  0.000  0.000  0.000  0.000  0.000  0.263
tot    0.000  0.490  0.000  0.035  0.000  0.000  0.000  0.000  0.000  0.525
 
band    14 # energy    7.66865802 # occ.  0.00000000
 
ion      s     py     pz     px    dxy    dyz    dz2    dxz  x2-y2    tot
    1  0.000  0.000  0.018  0.000  0.000  0.000  0.000  0.000  0.000  0.018
    2  0.000  0.000  0.018  0.000  0.000  0.000  0.000  0.000  0.000  0.018
tot    0.000  0.000  0.035  0.000  0.000  0.000  0.000  0.000  0.000  0.035
 
band    15 # energy    8.46831719 # occ.  0.00000000
 
ion      s     py     pz     px    dxy    dyz    dz2    dxz  x2-y2    tot
    1  0.006  0.000  0.000  0.000  0.000  0.000  0.000  0.000  0.000  0.006
    2  0.006  0.000  0.000  0.000  0.000  0.000  0.000  0.000  0.000  0.006
tot    0.012  0.000  0.000  0.000  0.000  0.000  0.000  0.000  0.000  0.012
 
band    16 # energy    8.70690000 # occ.  0.00000000
 
ion      s     py     pz     px    dxy    dyz    dz2    dxz  x2-y2    tot
    1  0.000  0.000  0.390  0.000  0.000  0.000  0.000  0.000  0.000  0.390
    2  0.000  0.000  0.390  0.000  0.000  0.000  0.000  0.000  0.000  0.390
tot    0.000  0.000  0.780  0.000  0.000  0.000  0.000  0.000  0.000  0.780
 

 k-point     2 :    0.06666667-0.00000000 0.00000000     weight = 0.00888889

band     1 # energy  -22.16963770 # occ.  2.00000000
 
ion      s     py     pz     px    dxy    dyz    dz2    dxz  x2-y2    tot
    1  0.320  0.001  0.000  0.002  0.000  0.000  0.000  0.000  0.000  0.322
    2  0.320  0.001  0.000  0.002  0.000  0.000  0.000  0.000  0.000  0.322
tot    0.640  0.001  0.000  0.003  0.000  0.000  0.000  0.000  0.000  0.644
 
band     2 # energy  -10.24807146 # occ.  2.00000000
 
ion      s     py     pz     px    dxy    dyz    dz2    dxz  x2-y2    tot
    1  0.000  0.000  0.216  0.000  0.000  0.000  0.000  0.000  0.000  0.216
    2  0.000  0.000  0.216  0.000  0.000  0.000  0.000  0.000  0.000  0.216
tot    0.000  0.000  0.432  0.000  0.000  0.000  0.000  0.000  0.000  0.432
 
band     3 # energy   -6.20135902 # occ.  2.00000000
 
ion      s     py     pz     px    dxy    dyz    dz2    dxz  x2-y2    tot
    1  0.012  0.096  0.000  0.300  0.000  0.000  0.000  0.000  0.000  0.407
    2  0.012  0.096  0.000  0.300  0.000  0.000  0.000  0.000  0.000  0.407
tot    0.024  0.191  0.000  0.599  0.000  0.000  0.000  0.000  0.000  0.815
 
band     4 # energy   -5.98195398 # occ.  2.00000000
 
ion      s     py     pz     px    dxy    dyz    dz2    dxz  x2-y2    tot
    1  0.000  0.311  0.000  0.099  0.000  0.000  0.000  0.000  0.000  0.410
    2  0.000  0.311  0.000  0.099  0.000  0.000  0.000  0.000  0.000  0.410
tot    0.000  0.622  0.000  0.198  0.000  0.000  0.000  0.000  0.000  0.820
 
band     5 # energy    0.66338527 # occ.  0.00000000
 
ion      s     py     pz     px    dxy    dyz    dz2    dxz  x2-y2    tot
    1  0.010  0.000  0.000  0.000  0.000  0.000  0.000  0.000  0.000  0.010
    2  0.010  0.000  0.000  0.000  0.000  0.000  0.000  0.000  0.000  0.010
tot    0.019  0.000  0.000  0.000  0.000  0.000  0.000  0.000  0.000  0.020
 
band     6 # energy    1.46429930 # occ.  0.00000000
 
ion      s     py     pz     px    dxy    dyz    dz2    dxz  x2-y2    tot
    1  0.000  0.000  0.011  0.000  0.000  0.000  0.000  0.000  0.000  0.011
    2  0.000  0.000  0.011  0.000  0.000  0.000  0.000  0.000  0.000  0.011
tot    0.000  0.000  0.023  0.000  0.000  0.000  0.000  0.000  0.000  0.023
 
band     7 # energy    1.82856110 # occ.  0.00000000
 
ion      s     py     pz     px    dxy    dyz    dz2    dxz  x2-y2    tot
    1  0.001  0.000  0.000  0.000  0.000  0.000  0.000  0.000  0.000  0.001
    2  0.001  0.000  0.000  0.000  0.000  0.000  0.000  0.000  0.000  0.001
tot    0.002  0.000  0.000  0.000  0.000  0.000  0.000  0.000  0.000  0.002
 
band     8 # energy    2.73770540 # occ.  0.00000000
 
ion      s     py     pz     px    dxy    dyz    dz2    dxz  x2-y2    tot
    1  0.000  0.000  0.008  0.000  0.000  0.000  0.000  0.000  0.000  0.008
    2  0.000  0.000  0.008  0.000  0.000  0.000  0.000  0.000  0.000  0.008
tot    0.000  0.000  0.016  0.000  0.000  0.000  0.000  0.000  0.000  0.016
 
band     9 # energy    3.19599108 # occ.  0.00000000
 
ion      s     py     pz     px    dxy    dyz    dz2    dxz  x2-y2    tot
    1  0.004  0.000  0.000  0.000  0.000  0.000  0.000  0.000  0.000  0.004
    2  0.004  0.000  0.000  0.000  0.000  0.000  0.000  0.000  0.000  0.004
tot    0.007  0.000  0.000  0.000  0.000  0.000  0.000  0.000  0.000  0.008
 
band    10 # energy    4.86615005 # occ.  0.00000000
 
ion      s     py     pz     px    dxy    dyz    dz2    dxz  x2-y2    tot
    1  0.000  0.000  0.013  0.000  0.000  0.000  0.000  0.000  0.000  0.013
    2  0.000  0.000  0.013  0.000  0.000  0.000  0.000  0.000  0.000  0.013
tot    0.000  0.000  0.026  0.000  0.000  0.000  0.000  0.000  0.000  0.026
 
band    11 # energy    5.45756382 # occ.  0.00000000
 
ion      s     py     pz     px    dxy    dyz    dz2    dxz  x2-y2    tot
    1  0.002  0.007  0.000  0.024  0.000  0.000  0.000  0.000  0.000  0.033
    2  0.002  0.007  0.000  0.024  0.000  0.000  0.000  0.000  0.000  0.033
tot    0.004  0.014  0.000  0.049  0.000  0.000  0.000  0.000  0.000  0.067
 
band    12 # energy    5.64304391 # occ.  0.00000000
 
ion      s     py     pz     px    dxy    dyz    dz2    dxz  x2-y2    tot
    1  0.010  0.045  0.000  0.175  0.000  0.000  0.000  0.000  0.000  0.230
    2  0.010  0.045  0.000  0.175  0.000  0.000  0.000  0.000  0.000  0.230
tot    0.020  0.091  0.000  0.350  0.000  0.000  0.000  0.000  0.000  0.460
 
band    13 # energy    6.08877639 # occ.  0.00000000
 
ion      s     py     pz     px    dxy    dyz    dz2    dxz  x2-y2    tot
    1  0.000  0.210  0.000  0.056  0.000  0.000  0.000  0.000  0.000  0.266
    2  0.000  0.210  0.000  0.056  0.000  0.000  0.000  0.000  0.000  0.266
tot    0.000  0.421  0.000  0.112  0.000  0.000  0.000  0.000  0.000  0.533
 
band    14 # energy    7.80916481 # occ.  0.00000000
 
ion      s     py     pz     px    dxy    dyz    dz2    dxz  x2-y2    tot
    1  0.000  0.000  0.018  0.000  0.000  0.000  0.000  0.000  0.000  0.018
    2  0.000  0.000  0.018  0.000  0.000  0.000  0.000  0.000  0.000  0.018
tot    0.000  0.000  0.035  0.000  0.000  0.000  0.000  0.000  0.000  0.035
 
band    15 # energy    8.34166098 # occ.  0.00000000
 
ion      s     py     pz     px    dxy    dyz    dz2    dxz  x2-y2    tot
    1  0.000  0.000  0.381  0.000  0.000  0.000  0.000  0.000  0.000  0.381
    2  0.000  0.000  0.381  0.000  0.000  0.000  0.000  0.000  0.000  0.381
tot    0.000  0.000  0.762  0.000  0.000  0.000  0.000  0.000  0.000  0.762
 
band    16 # energy    8.61320509 # occ.  0.00000000
 
ion      s     py     pz     px    dxy    dyz    dz2    dxz  x2-y2    tot
    1  0.006  0.000  0.000  0.000  0.000  0.000  0.000  0.000  0.000  0.006
    2  0.006  0.000  0.000  0.000  0.000  0.000  0.000  0.000  0.000  0.006
tot    0.013  0.000  0.000  0.000  0.000  0.000  0.000  0.000  0.000  0.013
 

 k-point     3 :    0.13333333-0.00000000 0.00000000     weight = 0.00888889

band     1 # energy  -21.85576116 # occ.  2.00000000
 
ion      s     py     pz     px    dxy    dyz    dz2    dxz  x2-y2    tot
    1  0.315  0.002  0.000  0.007  0.000  0.000  0.000  0.000  0.000  0.324
    2  0.315  0.002  0.000  0.007  0.000  0.000  0.000  0.000  0.000  0.324
tot    0.630  0.004  0.000  0.013  0.000  0.000  0.000  0.000  0.000  0.648
 
band     2 # energy   -9.87466964 # occ.  2.00000000
 
ion      s     py     pz     px    dxy    dyz    dz2    dxz  x2-y2    tot
    1  0.000  0.000  0.217  0.000  0.000  0.000  0.000  0.000  0.000  0.217
    2  0.000  0.000  0.217  0.000  0.000  0.000  0.000  0.000  0.000  0.217
tot    0.000  0.000  0.435  0.000  0.000  0.000  0.000  0.000  0.000  0.435
 
band     3 # energy   -7.33662692 # occ.  2.00000000
 
ion      s     py     pz     px    dxy    dyz    dz2    dxz  x2-y2    tot
    1  0.041  0.089  0.000  0.268  0.000  0.000  0.000  0.000  0.000  0.398
    2  0.041  0.089  0.000  0.268  0.000  0.000  0.000  0.000  0.000  0.398
tot    0.081  0.179  0.000  0.535  0.000  0.000  0.000  0.000  0.000  0.795
 
band     4 # energy   -6.53990574 # occ.  2.00000000
 
ion      s     py     pz     px    dxy    dyz    dz2    dxz  x2-y2    tot
    1  0.000  0.304  0.000  0.101  0.000  0.000  0.000  0.000  0.000  0.405
    2  0.000  0.304  0.000  0.101  0.000  0.000  0.000  0.000  0.000  0.405
tot    0.000  0.607  0.000  0.202  0.000  0.000  0.000  0.000  0.000  0.809
 
band     5 # energy    1.09019228 # occ.  0.00000000
 
ion      s     py     pz     px    dxy    dyz    dz2    dxz  x2-y2    tot
    1  0.009  0.000  0.000  0.001  0.000  0.000  0.000  0.000  0.000  0.010
    2  0.009  0.000  0.000  0.001  0.000  0.000  0.000  0.000  0.000  0.010
tot    0.018  0.001  0.000  0.002  0.000  0.000  0.000  0.000  0.000  0.020
 
band     6 # energy    1.89618998 # occ.  0.00000000
 
ion      s     py     pz     px    dxy    dyz    dz2    dxz  x2-y2    tot
    1  0.000  0.000  0.012  0.000  0.000  0.000  0.000  0.000  0.000  0.012
    2  0.000  0.000  0.012  0.000  0.000  0.000  0.000  0.000  0.000  0.012
tot    0.000  0.000  0.023  0.000  0.000  0.000  0.000  0.000  0.000  0.023
 
band     7 # energy    2.26622809 # occ.  0.00000000
 
ion      s     py     pz     px    dxy    dyz    dz2    dxz  x2-y2    tot
    1  0.001  0.000  0.000  0.000  0.000  0.000  0.000  0.000  0.000  0.001
    2  0.001  0.000  0.000  0.000  0.000  0.000  0.000  0.000  0.000  0.001
tot    0.002  0.000  0.000  0.000  0.000  0.000  0.000  0.000  0.000  0.002
 
band     8 # energy    3.17102971 # occ.  0.00000000
 
ion      s     py     pz     px    dxy    dyz    dz2    dxz  x2-y2    tot
    1  0.000  0.000  0.008  0.000  0.000  0.000  0.000  0.000  0.000  0.008
    2  0.000  0.000  0.008  0.000  0.000  0.000  0.000  0.000  0.000  0.008
tot    0.000  0.000  0.017  0.000  0.000  0.000  0.000  0.000  0.000  0.017
 
band     9 # energy    3.62839739 # occ.  0.00000000
 
ion      s     py     pz     px    dxy    dyz    dz2    dxz  x2-y2    tot
    1  0.003  0.000  0.000  0.001  0.000  0.000  0.000  0.000  0.000  0.004
    2  0.003  0.000  0.000  0.001  0.000  0.000  0.000  0.000  0.000  0.004
tot    0.006  0.000  0.000  0.002  0.000  0.000  0.000  0.000  0.000  0.008
 
band    10 # energy    5.29434020 # occ.  0.00000000
 
ion      s     py     pz     px    dxy    dyz    dz2    dxz  x2-y2    tot
    1  0.000  0.000  0.013  0.000  0.000  0.000  0.000  0.000  0.000  0.013
    2  0.000  0.000  0.013  0.000  0.000  0.000  0.000  0.000  0.000  0.013
tot    0.000  0.000  0.026  0.000  0.000  0.000  0.000  0.000  0.000  0.026
 
band    11 # energy    5.63932867 # occ.  0.00000000
 
ion      s     py     pz     px    dxy    dyz    dz2    dxz  x2-y2    tot
    1  0.026  0.045  0.000  0.145  0.000  0.000  0.000  0.000  0.000  0.217
    2  0.026  0.045  0.000  0.145  0.000  0.000  0.000  0.000  0.000  0.217
tot    0.053  0.091  0.000  0.290  0.000  0.000  0.000  0.000  0.000  0.433
 
band    12 # energy    5.94970363 # occ.  0.00000000
 
ion      s     py     pz     px    dxy    dyz    dz2    dxz  x2-y2    tot
    1  0.016  0.005  0.000  0.017  0.000  0.000  0.000  0.000  0.000  0.038
    2  0.016  0.005  0.000  0.017  0.000  0.000  0.000  0.000  0.000  0.038
tot    0.032  0.010  0.000  0.033  0.000  0.000  0.000  0.000  0.000  0.075
 
band    13 # energy    7.32246559 # occ.  0.00000000
 
ion      s     py     pz     px    dxy    dyz    dz2    dxz  x2-y2    tot
    1  0.000  0.209  0.000  0.067  0.000  0.000  0.000  0.000  0.000  0.276
    2  0.000  0.209  0.000  0.067  0.000  0.000  0.000  0.000  0.000  0.276
tot    0.000  0.418  0.000  0.133  0.000  0.000  0.000  0.000  0.000  0.551
 
band    14 # energy    7.32360612 # occ.  0.00000000
 
ion      s     py     pz     px    dxy    dyz    dz2    dxz  x2-y2    tot
    1  0.000  0.000  0.357  0.000  0.000  0.000  0.000  0.000  0.000  0.357
    2  0.000  0.000  0.357  0.000  0.000  0.000  0.000  0.000  0.000  0.357
tot    0.000  0.000  0.715  0.000  0.000  0.000  0.000  0.000  0.000  0.715
 
band    15 # energy    8.23157350 # occ.  0.00000000
 
ion      s     py     pz     px    dxy    dyz    dz2    dxz  x2-y2    tot
    1  0.000  0.000  0.019  0.000  0.000  0.000  0.000  0.000  0.000  0.019
    2  0.000  0.000  0.019  0.000  0.000  0.000  0.000  0.000  0.000  0.019
tot    0.000  0.000  0.038  0.000  0.000  0.000  0.000  0.000  0.000  0.038
 
band    16 # energy    9.04475793 # occ.  0.00000000
 
ion      s     py     pz     px    dxy    dyz    dz2    dxz  x2-y2    tot
    1  0.007  0.000  0.000  0.000  0.000  0.000  0.000  0.000  0.000  0.007
    2  0.007  0.000  0.000  0.000  0.000  0.000  0.000  0.000  0.000  0.007
tot    0.014  0.000  0.000  0.000  0.000  0.000  0.000  0.000  0.000  0.014
 

 k-point     4 :    0.20000000-0.00000000 0.00000000     weight = 0.00888889

band     1 # energy  -21.33515193 # occ.  2.00000000
 
ion      s     py     pz     px    dxy    dyz    dz2    dxz  x2-y2    tot
    1  0.307  0.005  0.000  0.015  0.000  0.000  0.000  0.000  0.000  0.327
    2  0.307  0.005  0.000  0.015  0.000  0.000  0.000  0.000  0.000  0.327
tot    0.614  0.010  0.000  0.030  0.000  0.000  0.000  0.000  0.000  0.653
 
band     2 # energy   -9.26006154 # occ.  2.00000000
 
ion      s     py     pz     px    dxy    dyz    dz2    dxz  x2-y2    tot
    1  0.000  0.000  0.220  0.000  0.000  0.000  0.000  0.000  0.000  0.220
    2  0.000  0.000  0.220  0.000  0.000  0.000  0.000  0.000  0.000  0.220
tot    0.000  0.000  0.440  0.000  0.000  0.000  0.000  0.000  0.000  0.440
 
band     3 # energy   -8.88987030 # occ.  2.00000000
 
ion      s     py     pz     px    dxy    dyz    dz2    dxz  x2-y2    tot
    1  0.074  0.078  0.000  0.234  0.000  0.000  0.000  0.000  0.000  0.386
    2  0.074  0.078  0.000  0.234  0.000  0.000  0.000  0.000  0.000  0.386
tot    0.148  0.157  0.000  0.468  0.000  0.000  0.000  0.000  0.000  0.773
 
band     4 # energy   -7.23849546 # occ.  2.00000000
 
ion      s     py     pz     px    dxy    dyz    dz2    dxz  x2-y2    tot
    1  0.000  0.300  0.000  0.100  0.000  0.000  0.000  0.000  0.000  0.400
    2  0.000  0.300  0.000  0.100  0.000  0.000  0.000  0.000  0.000  0.400
tot    0.000  0.599  0.000  0.200  0.000  0.000  0.000  0.000  0.000  0.799
 
band     5 # energy    1.80107214 # occ.  0.00000000
 
ion      s     py     pz     px    dxy    dyz    dz2    dxz  x2-y2    tot
    1  0.008  0.001  0.000  0.002  0.000  0.000  0.000  0.000  0.000  0.011
    2  0.008  0.001  0.000  0.002  0.000  0.000  0.000  0.000  0.000  0.011
tot    0.016  0.001  0.000  0.004  0.000  0.000  0.000  0.000  0.000  0.021
 
band     6 # energy    2.61329150 # occ.  0.00000000
 
ion      s     py     pz     px    dxy    dyz    dz2    dxz  x2-y2    tot
    1  0.000  0.000  0.012  0.000  0.000  0.000  0.000  0.000  0.000  0.012
    2  0.000  0.000  0.012  0.000  0.000  0.000  0.000  0.000  0.000  0.012
tot    0.000  0.000  0.024  0.000  0.000  0.000  0.000  0.000  0.000  0.024
 
band     7 # energy    2.99563757 # occ.  0.00000000
 
ion      s     py     pz     px    dxy    dyz    dz2    dxz  x2-y2    tot
    1  0.001  0.000  0.000  0.000  0.000  0.000  0.000  0.000  0.000  0.001
    2  0.001  0.000  0.000  0.000  0.000  0.000  0.000  0.000  0.000  0.001
tot    0.001  0.000  0.000  0.000  0.000  0.000  0.000  0.000  0.000  0.002
 
band     8 # energy    3.89036884 # occ.  0.00000000
 
ion      s     py     pz     px    dxy    dyz    dz2    dxz  x2-y2    tot
    1  0.000  0.000  0.009  0.000  0.000  0.000  0.000  0.000  0.000  0.009
    2  0.000  0.000  0.009  0.000  0.000  0.000  0.000  0.000  0.000  0.009
tot    0.000  0.000  0.017  0.000  0.000  0.000  0.000  0.000  0.000  0.017
 
band     9 # energy    4.34743890 # occ.  0.00000000
 
ion      s     py     pz     px    dxy    dyz    dz2    dxz  x2-y2    tot
    1  0.002  0.001  0.000  0.002  0.000  0.000  0.000  0.000  0.000  0.005
    2  0.002  0.001  0.000  0.002  0.000  0.000  0.000  0.000  0.000  0.005
tot    0.005  0.001  0.000  0.004  0.000  0.000  0.000  0.000  0.000  0.010
 
band    10 # energy    5.55422208 # occ.  0.00000000
 
ion      s     py     pz     px    dxy    dyz    dz2    dxz  x2-y2    tot
    1  0.081  0.038  0.000  0.116  0.000  0.000  0.000  0.000  0.000  0.235
    2  0.081  0.038  0.000  0.116  0.000  0.000  0.000  0.000  0.000  0.235
tot    0.163  0.075  0.000  0.232  0.000  0.000  0.000  0.000  0.000  0.470
 
band    11 # energy    5.79821234 # occ.  0.00000000
 
ion      s     py     pz     px    dxy    dyz    dz2    dxz  x2-y2    tot
    1  0.000  0.000  0.277  0.000  0.000  0.000  0.000  0.000  0.000  0.277
    2  0.000  0.000  0.277  0.000  0.000  0.000  0.000  0.000  0.000  0.277
tot    0.000  0.000  0.555  0.000  0.000  0.000  0.000  0.000  0.000  0.555
 
band    12 # energy    6.04688069 # occ.  0.00000000
 
ion      s     py     pz     px    dxy    dyz    dz2    dxz  x2-y2    tot
    1  0.000  0.000  0.065  0.000  0.000  0.000  0.000  0.000  0.000  0.065
    2  0.000  0.000  0.065  0.000  0.000  0.000  0.000  0.000  0.000  0.065
tot    0.000  0.000  0.129  0.000  0.000  0.000  0.000  0.000  0.000  0.129
 
band    13 # energy    6.64324398 # occ.  0.00000000
 
ion      s     py     pz     px    dxy    dyz    dz2    dxz  x2-y2    tot
    1  0.009  0.000  0.000  0.000  0.000  0.000  0.000  0.000  0.000  0.009
    2  0.009  0.000  0.000  0.000  0.000  0.000  0.000  0.000  0.000  0.009
tot    0.018  0.000  0.000  0.000  0.000  0.000  0.000  0.000  0.000  0.019
 
band    14 # energy    8.92942879 # occ.  0.00000000
 
ion      s     py     pz     px    dxy    dyz    dz2    dxz  x2-y2    tot
    1  0.000  0.000  0.019  0.000  0.000  0.000  0.000  0.000  0.000  0.019
    2  0.000  0.000  0.019  0.000  0.000  0.000  0.000  0.000  0.000  0.019
tot    0.000  0.000  0.039  0.000  0.000  0.000  0.000  0.000  0.000  0.039
 
band    15 # energy    9.11834142 # occ.  0.00000000
 
ion      s     py     pz     px    dxy    dyz    dz2    dxz  x2-y2    tot
    1  0.000  0.216  0.000  0.072  0.000  0.000  0.000  0.000  0.000  0.288
    2  0.000  0.216  0.000  0.072  0.000  0.000  0.000  0.000  0.000  0.288
tot    0.000  0.432  0.000  0.144  0.000  0.000  0.000  0.000  0.000  0.576
 
band    16 # energy    9.75746292 # occ.  0.00000000
 
ion      s     py     pz     px    dxy    dyz    dz2    dxz  x2-y2    tot
    1  0.007  0.000  0.000  0.000  0.000  0.000  0.000  0.000  0.000  0.007
    2  0.007  0.000  0.000  0.000  0.000  0.000  0.000  0.000  0.000  0.007
tot    0.014  0.000  0.000  0.001  0.000  0.000  0.000  0.000  0.000  0.015
 

 k-point     5 :    0.26666667-0.00000000 0.00000000     weight = 0.00888889

band     1 # energy  -20.61211587 # occ.  2.00000000
 
ion      s     py     pz     px    dxy    dyz    dz2    dxz  x2-y2    tot
    1  0.296  0.009  0.000  0.026  0.000  0.000  0.000  0.000  0.000  0.331
    2  0.296  0.009  0.000  0.026  0.000  0.000  0.000  0.000  0.000  0.331
tot    0.592  0.017  0.000  0.052  0.000  0.000  0.000  0.000  0.000  0.661
 
band     2 # energy  -10.62456744 # occ.  2.00000000
 
ion      s     py     pz     px    dxy    dyz    dz2    dxz  x2-y2    tot
    1  0.107  0.067  0.000  0.201  0.000  0.000  0.000  0.000  0.000  0.375
    2  0.107  0.067  0.000  0.201  0.000  0.000  0.000  0.000  0.000  0.375
tot    0.213  0.135  0.000  0.402  0.000  0.000  0.000  0.000  0.000  0.751
 
band     3 # energy   -8.41958986 # occ.  2.00000000
 
ion      s     py     pz     px    dxy    dyz    dz2    dxz  x2-y2    tot
    1  0.000  0.000  0.224  0.000  0.000  0.000  0.000  0.000  0.000  0.224
    2  0.000  0.000  0.224  0.000  0.000  0.000  0.000  0.000  0.000  0.224
tot    0.000  0.000  0.447  0.000  0.000  0.000  0.000  0.000  0.000  0.447
 
band     4 # energy   -7.91900530 # occ.  2.00000000
 
ion      s     py     pz     px    dxy    dyz    dz2    dxz  x2-y2    tot
    1  0.000  0.297  0.000  0.099  0.000  0.000  0.000  0.000  0.000  0.396
    2  0.000  0.297  0.000  0.099  0.000  0.000  0.000  0.000  0.000  0.396
tot    0.000  0.595  0.000  0.198  0.000  0.000  0.000  0.000  0.000  0.793
 
band     5 # energy    2.79385131 # occ.  0.00000000
 
ion      s     py     pz     px    dxy    dyz    dz2    dxz  x2-y2    tot
    1  0.007  0.001  0.000  0.003  0.000  0.000  0.000  0.000  0.000  0.012
    2  0.007  0.001  0.000  0.003  0.000  0.000  0.000  0.000  0.000  0.012
tot    0.014  0.002  0.000  0.007  0.000  0.000  0.000  0.000  0.000  0.023
 
band     6 # energy    3.56657861 # occ.  0.00000000
 
ion      s     py     pz     px    dxy    dyz    dz2    dxz  x2-y2    tot
    1  0.000  0.000  0.041  0.000  0.000  0.000  0.000  0.000  0.000  0.041
    2  0.000  0.000  0.041  0.000  0.000  0.000  0.000  0.000  0.000  0.041
tot    0.000  0.000  0.081  0.000  0.000  0.000  0.000  0.000  0.000  0.081
 
band     7 # energy    4.01630384 # occ.  0.00000000
 
ion      s     py     pz     px    dxy    dyz    dz2    dxz  x2-y2    tot
    1  0.001  0.000  0.000  0.001  0.000  0.000  0.000  0.000  0.000  0.001
    2  0.001  0.000  0.000  0.001  0.000  0.000  0.000  0.000  0.000  0.001
tot    0.001  0.000  0.000  0.001  0.000  0.000  0.000  0.000  0.000  0.003
 
band     8 # energy    4.08942190 # occ.  0.00000000
 
ion      s     py     pz     px    dxy    dyz    dz2    dxz  x2-y2    tot
    1  0.000  0.000  0.263  0.000  0.000  0.000  0.000  0.000  0.000  0.263
    2  0.000  0.000  0.263  0.000  0.000  0.000  0.000  0.000  0.000  0.263
tot    0.000  0.000  0.525  0.000  0.000  0.000  0.000  0.000  0.000  0.525
 
band     9 # energy    4.92280205 # occ.  0.00000000
 
ion      s     py     pz     px    dxy    dyz    dz2    dxz  x2-y2    tot
    1  0.000  0.000  0.017  0.000  0.000  0.000  0.000  0.000  0.000  0.017
    2  0.000  0.000  0.017  0.000  0.000  0.000  0.000  0.000  0.000  0.017
tot    0.000  0.000  0.033  0.000  0.000  0.000  0.000  0.000  0.000  0.033
 
band    10 # energy    5.24254230 # occ.  0.00000000
 
ion      s     py     pz     px    dxy    dyz    dz2    dxz  x2-y2    tot
    1  0.067  0.019  0.000  0.057  0.000  0.000  0.000  0.000  0.000  0.143
    2  0.067  0.019  0.000  0.057  0.000  0.000  0.000  0.000  0.000  0.143
tot    0.135  0.037  0.000  0.114  0.000  0.000  0.000  0.000  0.000  0.285
 
band    11 # energy    5.44616502 # occ.  0.00000000
 
ion      s     py     pz     px    dxy    dyz    dz2    dxz  x2-y2    tot
    1  0.062  0.008  0.000  0.024  0.000  0.000  0.000  0.000  0.000  0.093
    2  0.062  0.008  0.000  0.024  0.000  0.000  0.000  0.000  0.000  0.093
tot    0.123  0.016  0.000  0.048  0.000  0.000  0.000  0.000  0.000  0.187
 
band    12 # energy    7.01145492 # occ.  0.00000000
 
ion      s     py     pz     px    dxy    dyz    dz2    dxz  x2-y2    tot
    1  0.000  0.000  0.015  0.000  0.000  0.000  0.000  0.000  0.000  0.015
    2  0.000  0.000  0.015  0.000  0.000  0.000  0.000  0.000  0.000  0.015
tot    0.000  0.000  0.031  0.000  0.000  0.000  0.000  0.000  0.000  0.031
 
band    13 # energy    7.63882100 # occ.  0.00000000
 
ion      s     py     pz     px    dxy    dyz    dz2    dxz  x2-y2    tot
    1  0.006  0.000  0.000  0.000  0.000  0.000  0.000  0.000  0.000  0.007
    2  0.006  0.000  0.000  0.000  0.000  0.000  0.000  0.000  0.000  0.007
tot    0.013  0.000  0.000  0.001  0.000  0.000  0.000  0.000  0.000  0.014
 
band    14 # energy    9.89462693 # occ.  0.00000000
 
ion      s     py     pz     px    dxy    dyz    dz2    dxz  x2-y2    tot
    1  0.000  0.000  0.021  0.000  0.000  0.000  0.000  0.000  0.000  0.021
    2  0.000  0.000  0.021  0.000  0.000  0.000  0.000  0.000  0.000  0.021
tot    0.000  0.000  0.042  0.000  0.000  0.000  0.000  0.000  0.000  0.042
 
band    15 # energy   10.74897021 # occ.  0.00000000
 
ion      s     py     pz     px    dxy    dyz    dz2    dxz  x2-y2    tot
    1  0.006  0.001  0.000  0.002  0.000  0.000  0.000  0.000  0.000  0.008
    2  0.006  0.001  0.000  0.002  0.000  0.000  0.000  0.000  0.000  0.008
tot    0.012  0.001  0.000  0.003  0.000  0.000  0.000  0.000  0.000  0.016
 
band    16 # energy   11.25781720 # occ.  0.00000000
 
ion      s     py     pz     px    dxy    dyz    dz2    dxz  x2-y2    tot
    1  0.000  0.226  0.000  0.078  0.000  0.000  0.000  0.000  0.000  0.304
    2  0.000  0.226  0.000  0.078  0.000  0.000  0.000  0.000  0.000  0.304
tot    0.000  0.451  0.000  0.156  0.000  0.000  0.000  0.000  0.000  0.608
 

 k-point     6 :    0.33333333-0.00000000 0.00000000     weight = 0.00888889

band     1 # energy  -19.69440780 # occ.  2.00000000
 
ion      s     py     pz     px    dxy    dyz    dz2    dxz  x2-y2    tot
    1  0.283  0.013  0.000  0.039  0.000  0.000  0.000  0.000  0.000  0.336
    2  0.283  0.013  0.000  0.039  0.000  0.000  0.000  0.000  0.000  0.336
tot    0.566  0.026  0.000  0.079  0.000  0.000  0.000  0.000  0.000  0.671
 
band     2 # energy  -12.38932080 # occ.  2.00000000
 
ion      s     py     pz     px    dxy    dyz    dz2    dxz  x2-y2    tot
    1  0.136  0.057  0.000  0.172  0.000  0.000  0.000  0.000  0.000  0.365
    2  0.136  0.057  0.000  0.172  0.000  0.000  0.000  0.000  0.000  0.365
tot    0.272  0.115  0.000  0.343  0.000  0.000  0.000  0.000  0.000  0.730