<?xml version="1.0" encoding="ISO-8859-1"?>
<modeling>
 <generator>
  <i name="program" type="string">vasp </i>
  <i name="version" type="string">5.4.4.18Apr17-6-g9f103f2a35  </i>
  <i name="subversion" type="string">(build Jul 16 2023 17:01:57) complex            parallel </i>
  <i name="platform" type="string">LinuxIFC </i>
  <i name="date" type="string">2025 09 21 </i>
  <i name="time" type="string">00:59:58 </i>
 </generator>
 <incar>
  <i type="string" name="SYSTEM"> Graphene SCF</i>
  <i type="string" name="PREC">accurate</i>
  <i type="string" name="ALGO"> Normal</i>
  <i type="int" name="ICHARG">    11</i>
  <i type="int" name="IBRION">    -1</i>
  <i name="EDIFF">      0.00000100</i>
  <i name="EDIFFG">     -0.01000000</i>
  <i type="int" name="NSW">     0</i>
  <i name="ENCUT">    550.00000000</i>
  <i type="int" name="NEDOS">  3000</i>
  <i type="logical" name="LREAL"> F  </i>
  <i type="logical" name="LPLANE"> T  </i>
  <i type="int" name="ISMEAR">    -5</i>
  <i name="SIGMA">      0.05000000</i>
  <i type="logical" name="LWAVE"> F  </i>
  <i type="logical" name="LCHARG"> F  </i>
  <i type="int" name="LORBIT">    11</i>
  <v type="int" name="KPOINT_BSE">    -1     0     0     0</v>
 </incar>
 <structure name="primitive_cell" >
  <crystal>
   <varray name="basis" >
    <v>       2.46810000       0.00000000       0.00000000 </v>
    <v>      -1.23000000       2.13000000       0.00000000 </v>
    <v>       0.00000000       0.00000000      20.00000000 </v>
   </varray>
   <i name="volume">    105.14106000 </i>
   <varray name="rec_basis" >
    <v>       0.40516997       0.23397139       0.00000000 </v>
    <v>       0.00000000       0.46948357       0.00000000 </v>
    <v>       0.00000000       0.00000000       0.05000000 </v>
   </varray>
  </crystal>
  <varray name="positions" >
   <v>       0.33338056      -0.33328647      -0.50000000 </v>
   <v>      -0.33338056       0.33328647      -0.50000000 </v>
  </varray>
 </structure>
 <varray name="primitive_index" >
  <v type="int" >        1 </v>
  <v type="int" >        2 </v>
 </varray>
 <kpoints>
  <generation param="Monkhorst-Pack">
   <v type="int" name="divisions">      15       15        1 </v>
   <v name="usershift">      0.00000000       0.00000000       0.00000000 </v>
   <v name="genvec1">      0.06666667       0.00000000       0.00000000 </v>
   <v name="genvec2">      0.00000000       0.06666667       0.00000000 </v>
   <v name="genvec3">      0.00000000       0.00000000       1.00000000 </v>
   <v name="shift">      0.00000000       0.00000000       0.00000000 </v>
  </generation>
  <varray name="kpointlist" >
   <v>       0.00000000       0.00000000       0.00000000 </v>
   <v>       0.06666667      -0.00000000       0.00000000 </v>
   <v>       0.13333333      -0.00000000       0.00000000 </v>
   <v>       0.20000000      -0.00000000       0.00000000 </v>
   <v>       0.26666667      -0.00000000       0.00000000 </v>
   <v>       0.33333333      -0.00000000       0.00000000 </v>
   <v>       0.40000000      -0.00000000       0.00000000 </v>
   <v>       0.46666667      -0.00000000       0.00000000 </v>
   <v>       0.00000000       0.06666667       0.00000000 </v>
   <v>       0.06666667       0.06666667       0.00000000 </v>
   <v>       0.13333333       0.06666667       0.00000000 </v>
   <v>       0.20000000       0.06666667       0.00000000 </v>
   <v>       0.26666667       0.06666667       0.00000000 </v>
   <v>       0.33333333       0.06666667       0.00000000 </v>
   <v>       0.40000000       0.06666667       0.00000000 </v>
   <v>       0.46666667       0.06666667       0.00000000 </v>
   <v>      -0.46666667       0.06666667       0.00000000 </v>
   <v>      -0.40000000       0.06666667       0.00000000 </v>
   <v>      -0.33333333       0.06666667       0.00000000 </v>
   <v>      -0.26666667       0.06666667       0.00000000 </v>
   <v>      -0.20000000       0.06666667       0.00000000 </v>
   <v>      -0.13333333       0.06666667       0.00000000 </v>
   <v>      -0.06666667       0.06666667       0.00000000 </v>
   <v>       0.00000000       0.13333333       0.00000000 </v>
   <v>       0.06666667       0.13333333       0.00000000 </v>
   <v>       0.13333333       0.13333333       0.00000000 </v>
   <v>       0.20000000       0.13333333       0.00000000 </v>
   <v>       0.26666667       0.13333333       0.00000000 </v>
   <v>       0.33333333       0.13333333       0.00000000 </v>
   <v>       0.40000000       0.13333333       0.00000000 </v>
   <v>       0.46666667       0.13333333       0.00000000 </v>
   <v>      -0.46666667       0.13333333       0.00000000 </v>
   <v>      -0.40000000       0.13333333       0.00000000 </v>
   <v>      -0.33333333       0.13333333       0.00000000 </v>
   <v>      -0.26666667       0.13333333       0.00000000 </v>
   <v>      -0.20000000       0.13333333       0.00000000 </v>
   <v>      -0.13333333       0.13333333       0.00000000 </v>
   <v>      -0.06666667       0.13333333       0.00000000 </v>
   <v>       0.00000000       0.20000000       0.00000000 </v>
   <v>       0.06666667       0.20000000       0.00000000 </v>
   <v>       0.13333333       0.20000000       0.00000000 </v>
   <v>       0.20000000       0.20000000       0.00000000 </v>
   <v>       0.26666667       0.20000000       0.00000000 </v>
   <v>       0.33333333       0.20000000       0.00000000 </v>
   <v>       0.40000000       0.20000000       0.00000000 </v>
   <v>       0.46666667       0.20000000       0.00000000 </v>
   <v>      -0.46666667       0.20000000       0.00000000 </v>
   <v>      -0.40000000       0.20000000       0.00000000 </v>
   <v>      -0.33333333       0.20000000       0.00000000 </v>
   <v>      -0.26666667       0.20000000       0.00000000 </v>
   <v>      -0.20000000       0.20000000       0.00000000 </v>
   <v>      -0.13333333       0.20000000       0.00000000 </v>
   <v>      -0.06666667       0.20000000       0.00000000 </v>
   <v>       0.00000000       0.26666667       0.00000000 </v>
   <v>       0.06666667       0.26666667       0.00000000 </v>
   <v>       0.13333333       0.26666667       0.00000000 </v>
   <v>       0.20000000       0.26666667       0.00000000 </v>
   <v>       0.26666667       0.26666667       0.00000000 </v>
   <v>       0.33333333       0.26666667       0.00000000 </v>
   <v>       0.40000000       0.26666667       0.00000000 </v>
   <v>       0.46666667       0.26666667       0.00000000 </v>
   <v>      -0.46666667       0.26666667       0.00000000 </v>
   <v>      -0.40000000       0.26666667       0.00000000 </v>
   <v>      -0.33333333       0.26666667       0.00000000 </v>
   <v>      -0.26666667       0.26666667       0.00000000 </v>
   <v>      -0.20000000       0.26666667       0.00000000 </v>
   <v>      -0.13333333       0.26666667       0.00000000 </v>
   <v>      -0.06666667       0.26666667       0.00000000 </v>
   <v>       0.00000000       0.33333333       0.00000000 </v>
   <v>       0.06666667       0.33333333       0.00000000 </v>
   <v>       0.13333333       0.33333333       0.00000000 </v>
   <v>       0.20000000       0.33333333       0.00000000 </v>
   <v>       0.26666667       0.33333333       0.00000000 </v>
   <v>       0.33333333       0.33333333       0.00000000 </v>
   <v>       0.40000000       0.33333333       0.00000000 </v>
   <v>       0.46666667       0.33333333       0.00000000 </v>
   <v>      -0.46666667       0.33333333       0.00000000 </v>
   <v>      -0.40000000       0.33333333       0.00000000 </v>
   <v>      -0.33333333       0.33333333       0.00000000 </v>
   <v>      -0.26666667       0.33333333       0.00000000 </v>
   <v>      -0.20000000       0.33333333       0.00000000 </v>
   <v>      -0.13333333       0.33333333       0.00000000 </v>
   <v>      -0.06666667       0.33333333       0.00000000 </v>
   <v>       0.00000000       0.40000000       0.00000000 </v>
   <v>       0.06666667       0.40000000       0.00000000 </v>
   <v>       0.13333333       0.40000000       0.00000000 </v>
   <v>       0.20000000       0.40000000       0.00000000 </v>
   <v>       0.26666667       0.40000000       0.00000000 </v>
   <v>       0.33333333       0.40000000       0.00000000 </v>
   <v>       0.40000000       0.40000000       0.00000000 </v>
   <v>       0.46666667       0.40000000       0.00000000 </v>
   <v>      -0.46666667       0.40000000       0.00000000 </v>
   <v>      -0.40000000       0.40000000       0.00000000 </v>
   <v>      -0.33333333       0.40000000       0.00000000 </v>
   <v>      -0.26666667       0.40000000       0.00000000 </v>
   <v>      -0.20000000       0.40000000       0.00000000 </v>
   <v>      -0.13333333       0.40000000       0.00000000 </v>
   <v>      -0.06666667       0.40000000       0.00000000 </v>
   <v>       0.00000000       0.46666667       0.00000000 </v>
   <v>       0.06666667       0.46666667       0.00000000 </v>
   <v>       0.13333333       0.46666667       0.00000000 </v>
   <v>       0.20000000       0.46666667       0.00000000 </v>
   <v>       0.26666667       0.46666667       0.00000000 </v>
   <v>       0.33333333       0.46666667       0.00000000 </v>
   <v>       0.40000000       0.46666667       0.00000000 </v>
   <v>       0.46666667       0.46666667       0.00000000 </v>
   <v>      -0.46666667       0.46666667       0.00000000 </v>
   <v>      -0.40000000       0.46666667       0.00000000 </v>
   <v>      -0.33333333       0.46666667       0.00000000 </v>
   <v>      -0.26666667       0.46666667       0.00000000 </v>
   <v>      -0.20000000       0.46666667       0.00000000 </v>
   <v>      -0.13333333       0.46666667       0.00000000 </v>
   <v>      -0.06666667       0.46666667       0.00000000 </v>
  </varray>
  <varray name="weights" >
   <v>       0.00444444 </v>
   <v>       0.00888889 </v>
   <v>       0.00888889 </v>
   <v>       0.00888889 </v>
   <v>       0.00888889 </v>
   <v>       0.00888889 </v>
   <v>       0.00888889 </v>
   <v>       0.00888889 </v>
   <v>       0.00888889 </v>
   <v>       0.00888889 </v>
   <v>       0.00888889 </v>
   <v>       0.00888889 </v>
   <v>       0.00888889 </v>
   <v>       0.00888889 </v>
   <v>       0.00888889 </v>
   <v>       0.00888889 </v>
   <v>       0.00888889 </v>
   <v>       0.00888889 </v>
   <v>       0.00888889 </v>
   <v>       0.00888889 </v>
   <v>       0.00888889 </v>
   <v>       0.00888889 </v>
   <v>       0.00888889 </v>
   <v>       0.00888889 </v>
   <v>       0.00888889 </v>
   <v>       0.00888889 </v>
   <v>       0.00888889 </v>
   <v>       0.00888889 </v>
   <v>       0.00888889 </v>
   <v>       0.00888889 </v>
   <v>       0.00888889 </v>
   <v>       0.00888889 </v>
   <v>       0.00888889 </v>
   <v>       0.00888889 </v>
   <v>       0.00888889 </v>
   <v>       0.00888889 </v>
   <v>       0.00888889 </v>
   <v>       0.00888889 </v>
   <v>       0.00888889 </v>
   <v>       0.00888889 </v>
   <v>       0.00888889 </v>
   <v>       0.00888889 </v>
   <v>       0.00888889 </v>
   <v>       0.00888889 </v>
   <v>       0.00888889 </v>
   <v>       0.00888889 </v>
   <v>       0.00888889 </v>
   <v>       0.00888889 </v>
   <v>       0.00888889 </v>
   <v>       0.00888889 </v>
   <v>       0.00888889 </v>
   <v>       0.00888889 </v>
   <v>       0.00888889 </v>
   <v>       0.00888889 </v>
   <v>       0.00888889 </v>
   <v>       0.00888889 </v>
   <v>       0.00888889 </v>
   <v>       0.00888889 </v>
   <v>       0.00888889 </v>
   <v>       0.00888889 </v>
   <v>       0.00888889 </v>
   <v>       0.00888889 </v>
   <v>       0.00888889 </v>
   <v>       0.00888889 </v>
   <v>       0.00888889 </v>
   <v>       0.00888889 </v>
   <v>       0.00888889 </v>
   <v>       0.00888889 </v>
   <v>       0.00888889 </v>
   <v>       0.00888889 </v>
   <v>       0.00888889 </v>
   <v>       0.00888889 </v>
   <v>       0.00888889 </v>
   <v>       0.00888889 </v>
   <v>       0.00888889 </v>
   <v>       0.00888889 </v>
   <v>       0.00888889 </v>
   <v>       0.00888889 </v>
   <v>       0.00888889 </v>
   <v>       0.00888889 </v>
   <v>       0.00888889 </v>
   <v>       0.00888889 </v>
   <v>       0.00888889 </v>
   <v>       0.00888889 </v>
   <v>       0.00888889 </v>
   <v>       0.00888889 </v>
   <v>       0.00888889 </v>
   <v>       0.00888889 </v>
   <v>       0.00888889 </v>
   <v>       0.00888889 </v>
   <v>       0.00888889 </v>
   <v>       0.00888889 </v>
   <v>       0.00888889 </v>
   <v>       0.00888889 </v>
   <v>       0.00888889 </v>
   <v>       0.00888889 </v>
   <v>       0.00888889 </v>
   <v>       0.00888889 </v>
   <v>       0.00888889 </v>
   <v>       0.00888889 </v>
   <v>       0.00888889 </v>
   <v>       0.00888889 </v>
   <v>       0.00888889 </v>
   <v>       0.00888889 </v>
   <v>       0.00888889 </v>
   <v>       0.00888889 </v>
   <v>       0.00888889 </v>
   <v>       0.00888889 </v>
   <v>       0.00888889 </v>
   <v>       0.00888889 </v>
   <v>       0.00888889 </v>
   <v>       0.00888889 </v>
   <v>       0.00888889 </v>
  </varray>
  <varray name="tetrahedronlist"  type="int" >
   <v type="int" >        2        1        2        2        9 </v>
   <v type="int" >        2        2        2        9       10 </v>
   <v type="int" >        2        2        9       10       10 </v>
   <v type="int" >        2        1        1        2        9 </v>
   <v type="int" >        2        1        2        9        9 </v>
   <v type="int" >        2        2        9        9       10 </v>
   <v type="int" >        2        2        3        3       10 </v>
   <v type="int" >        2        3        3       10       11 </v>
   <v type="int" >        2        3       10       11       11 </v>
   <v type="int" >        2        2        2        3       10 </v>
   <v type="int" >        2        2        3       10       10 </v>
   <v type="int" >        2        3       10       10       11 </v>
   <v type="int" >        2        3        4        4       11 </v>
   <v type="int" >        2        4        4       11       12 </v>
   <v type="int" >        2        4       11       12       12 </v>
   <v type="int" >        2        3        3        4       11 </v>
   <v type="int" >        2        3        4       11       11 </v>
   <v type="int" >        2        4       11       11       12 </v>
   <v type="int" >        2        4        5        5       12 </v>
   <v type="int" >        2        5        5       12       13 </v>
   <v type="int" >        2        5       12       13       13 </v>
   <v type="int" >        2        4        4        5       12 </v>
   <v type="int" >        2        4        5       12       12 </v>
   <v type="int" >        2        5       12       12       13 </v>
   <v type="int" >        2        5        6        6       13 </v>
   <v type="int" >        2        6        6       13       14 </v>
   <v type="int" >        2        6       13       14       14 </v>
   <v type="int" >        2        5        5        6       13 </v>
   <v type="int" >        2        5        6       13       13 </v>
   <v type="int" >        2        6       13       13       14 </v>
   <v type="int" >        2        6        7        7       14 </v>
   <v type="int" >        2        7        7       14       15 </v>
   <v type="int" >        2        7       14       15       15 </v>
   <v type="int" >        2        6        6        7       14 </v>
   <v type="int" >        2        6        7       14       14 </v>
   <v type="int" >        2        7       14       14       15 </v>
   <v type="int" >        2        7        8        8       15 </v>
   <v type="int" >        2        8        8       15       16 </v>
   <v type="int" >        2        8       15       16       16 </v>
   <v type="int" >        2        7        7        8       15 </v>
   <v type="int" >        2        7        8       15       15 </v>
   <v type="int" >        2        8       15       15       16 </v>
   <v type="int" >        4        8        8        8       16 </v>
   <v type="int" >        2        8        8       16       17 </v>
   <v type="int" >        2        8       16       17       17 </v>
   <v type="int" >        2        8        8       16       16 </v>
   <v type="int" >        2        8       16       16       17 </v>
   <v type="int" >        2        7        7        8       17 </v>
   <v type="int" >        2        7        7       17       18 </v>
   <v type="int" >        2        7       17       18       18 </v>
   <v type="int" >        2        7        8        8       17 </v>
   <v type="int" >        2        7        8       17       17 </v>
   <v type="int" >        2        7       17       17       18 </v>
   <v type="int" >        2        6        6        7       18 </v>
   <v type="int" >        2        6        6       18       19 </v>
   <v type="int" >        2        6       18       19       19 </v>
   <v type="int" >        2        6        7        7       18 </v>
   <v type="int" >        2        6        7       18       18 </v>
   <v type="int" >        2        6       18       18       19 </v>
   <v type="int" >        2        5        5        6       19 </v>
   <v type="int" >        2        5        5       19       20 </v>
   <v type="int" >        2        5       19       20       20 </v>
   <v type="int" >        2        5        6        6       19 </v>
   <v type="int" >        2        5        6       19       19 </v>
   <v type="int" >        2        5       19       19       20 </v>
   <v type="int" >        2        4        4        5       20 </v>
   <v type="int" >        2        4        4       20       21 </v>
   <v type="int" >        2        4       20       21       21 </v>
   <v type="int" >        2        4        5        5       20 </v>
   <v type="int" >        2        4        5       20       20 </v>
   <v type="int" >        2        4       20       20       21 </v>
   <v type="int" >        2        3        3        4       21 </v>
   <v type="int" >        2        3        3       21       22 </v>
   <v type="int" >        2        3       21       22       22 </v>
   <v type="int" >        2        3        4        4       21 </v>
   <v type="int" >        2        3        4       21       21 </v>
   <v type="int" >        2        3       21       21       22 </v>
   <v type="int" >        2        2        2        3       22 </v>
   <v type="int" >        2        2        2       22       23 </v>
   <v type="int" >        2        2       22       23       23 </v>
   <v type="int" >        2        2        3        3       22 </v>
   <v type="int" >        2        2        3       22       22 </v>
   <v type="int" >        2        2       22       22       23 </v>
   <v type="int" >        2        1        1        2       23 </v>
   <v type="int" >        2        1        1        9       23 </v>
   <v type="int" >        2        1        9        9       23 </v>
   <v type="int" >        2        1        2        2       23 </v>
   <v type="int" >        2        1        2       23       23 </v>
   <v type="int" >        2        1        9       23       23 </v>
   <v type="int" >        2        9       10       10       24 </v>
   <v type="int" >        2       10       10       24       25 </v>
   <v type="int" >        2       10       24       25       25 </v>
   <v type="int" >        2        9        9       10       24 </v>
   <v type="int" >        2        9       10       24       24 </v>
   <v type="int" >        2       10       24       24       25 </v>
   <v type="int" >        2       10       11       11       25 </v>
   <v type="int" >        2       11       11       25       26 </v>
   <v type="int" >        2       11       25       26       26 </v>
   <v type="int" >        2       10       10       11       25 </v>
   <v type="int" >        2       10       11       25       25 </v>
   <v type="int" >        2       11       25       25       26 </v>
   <v type="int" >        2       11       12       12       26 </v>
   <v type="int" >        2       12       12       26       27 </v>
   <v type="int" >        2       12       26       27       27 </v>
   <v type="int" >        2       11       11       12       26 </v>
   <v type="int" >        2       11       12       26       26 </v>
   <v type="int" >        2       12       26       26       27 </v>
   <v type="int" >        2       12       13       13       27 </v>
   <v type="int" >        2       13       13       27       28 </v>
   <v type="int" >        2       13       27       28       28 </v>
   <v type="int" >        2       12       12       13       27 </v>
   <v type="int" >        2       12       13       27       27 </v>
   <v type="int" >        2       13       27       27       28 </v>
   <v type="int" >        2       13       14       14       28 </v>
   <v type="int" >        2       14       14       28       29 </v>
   <v type="int" >        2       14       28       29       29 </v>
   <v type="int" >        2       13       13       14       28 </v>
   <v type="int" >        2       13       14       28       28 </v>
   <v type="int" >        2       14       28       28       29 </v>
   <v type="int" >        2       14       15       15       29 </v>
   <v type="int" >        2       15       15       29       30 </v>
   <v type="int" >        2       15       29       30       30 </v>
   <v type="int" >        2       14       14       15       29 </v>
   <v type="int" >        2       14       15       29       29 </v>
   <v type="int" >        2       15       29       29       30 </v>
   <v type="int" >        2       15       16       16       30 </v>
   <v type="int" >        2       16       16       30       31 </v>
   <v type="int" >        2       16       30       31       31 </v>
   <v type="int" >        2       15       15       16       30 </v>
   <v type="int" >        2       15       16       30       30 </v>
   <v type="int" >        2       16       30       30       31 </v>
   <v type="int" >        2       16       17       17       31 </v>
   <v type="int" >        2       17       17       31       32 </v>
   <v type="int" >        2       17       31       32       32 </v>
   <v type="int" >        2       16       16       17       31 </v>
   <v type="int" >        2       16       17       31       31 </v>
   <v type="int" >        2       17       31       31       32 </v>
   <v type="int" >        2       17       18       18       32 </v>
   <v type="int" >        2       18       18       32       33 </v>
   <v type="int" >        2       18       32       33       33 </v>
   <v type="int" >        2       17       17       18       32 </v>
   <v type="int" >        2       17       18       32       32 </v>
   <v type="int" >        2       18       32       32       33 </v>
   <v type="int" >        2       18       19       19       33 </v>
   <v type="int" >        2       19       19       33       34 </v>
   <v type="int" >        2       19       33       34       34 </v>
   <v type="int" >        2       18       18       19       33 </v>
   <v type="int" >        2       18       19       33       33 </v>
   <v type="int" >        2       19       33       33       34 </v>
   <v type="int" >        2       19       20       20       34 </v>
   <v type="int" >        2       20       20       34       35 </v>
   <v type="int" >        2       20       34       35       35 </v>
   <v type="int" >        2       19       19       20       34 </v>
   <v type="int" >        2       19       20       34       34 </v>
   <v type="int" >        2       20       34       34       35 </v>
   <v type="int" >        2       20       21       21       35 </v>
   <v type="int" >        2       21       21       35       36 </v>
   <v type="int" >        2       21       35       36       36 </v>
   <v type="int" >        2       20       20       21       35 </v>
   <v type="int" >        2       20       21       35       35 </v>
   <v type="int" >        2       21       35       35       36 </v>
   <v type="int" >        2       21       22       22       36 </v>
   <v type="int" >        2       22       22       36       37 </v>
   <v type="int" >        2       22       36       37       37 </v>
   <v type="int" >        2       21       21       22       36 </v>
   <v type="int" >        2       21       22       36       36 </v>
   <v type="int" >        2       22       36       36       37 </v>
   <v type="int" >        2       22       23       23       37 </v>
   <v type="int" >        2       23       23       37       38 </v>
   <v type="int" >        2       23       37       38       38 </v>
   <v type="int" >        2       22       22       23       37 </v>
   <v type="int" >        2       22       23       37       37 </v>
   <v type="int" >        2       23       37       37       38 </v>
   <v type="int" >        2        9        9       23       38 </v>
   <v type="int" >        2        9        9       24       38 </v>
   <v type="int" >        2        9       24       24       38 </v>
   <v type="int" >        2        9       23       23       38 </v>
   <v type="int" >        2        9       23       38       38 </v>
   <v type="int" >        2        9       24       38       38 </v>
   <v type="int" >        2       24       25       25       39 </v>
   <v type="int" >        2       25       25       39       40 </v>
   <v type="int" >        2       25       39       40       40 </v>
   <v type="int" >        2       24       24       25       39 </v>
   <v type="int" >        2       24       25       39       39 </v>
   <v type="int" >        2       25       39       39       40 </v>
   <v type="int" >        2       25       26       26       40 </v>
   <v type="int" >        2       26       26       40       41 </v>
   <v type="int" >        2       26       40       41       41 </v>
   <v type="int" >        2       25       25       26       40 </v>
   <v type="int" >        2       25       26       40       40 </v>
   <v type="int" >        2       26       40       40       41 </v>
   <v type="int" >        2       26       27       27       41 </v>
   <v type="int" >        2       27       27       41       42 </v>
   <v type="int" >        2       27       41       42       42 </v>
   <v type="int" >        2       26       26       27       41 </v>
   <v type="int" >        2       26       27       41       41 </v>
   <v type="int" >        2       27       41       41       42 </v>
   <v type="int" >        2       27       28       28       42 </v>
   <v type="int" >        2       28       28       42       43 </v>
   <v type="int" >        2       28       42       43       43 </v>
   <v type="int" >        2       27       27       28       42 </v>
   <v type="int" >        2       27       28       42       42 </v>
   <v type="int" >        2       28       42       42       43 </v>
   <v type="int" >        2       28       29       29       43 </v>
   <v type="int" >        2       29       29       43       44 </v>
   <v type="int" >        2       29       43       44       44 </v>
   <v type="int" >        2       28       28       29       43 </v>
   <v type="int" >        2       28       29       43       43 </v>
   <v type="int" >        2       29       43       43       44 </v>
   <v type="int" >        2       29       30       30       44 </v>
   <v type="int" >        2       30       30       44       45 </v>
   <v type="int" >        2       30       44       45       45 </v>
   <v type="int" >        2       29       29       30       44 </v>
   <v type="int" >        2       29       30       44       44 </v>
   <v type="int" >        2       30       44       44       45 </v>
   <v type="int" >        2       30       31       31       45 </v>
   <v type="int" >        2       31       31       45       46 </v>
   <v type="int" >        2       31       45       46       46 </v>
   <v type="int" >        2       30       30       31       45 </v>
   <v type="int" >        2       30       31       45       45 </v>
   <v type="int" >        2       31       45       45       46 </v>
   <v type="int" >        2       31       32       32       46 </v>
   <v type="int" >        2       32       32       46       47 </v>
   <v type="int" >        2       32       46       47       47 </v>
   <v type="int" >        2       31       31       32       46 </v>
   <v type="int" >        2       31       32       46       46 </v>
   <v type="int" >        2       32       46       46       47 </v>
   <v type="int" >        2       32       33       33       47 </v>
   <v type="int" >        2       33       33       47       48 </v>
   <v type="int" >        2       33       47       48       48 </v>
   <v type="int" >        2       32       32       33       47 </v>
   <v type="int" >        2       32       33       47       47 </v>
   <v type="int" >        2       33       47       47       48 </v>
   <v type="int" >        2       33       34       34       48 </v>
   <v type="int" >        2       34       34       48       49 </v>
   <v type="int" >        2       34       48       49       49 </v>
   <v type="int" >        2       33       33       34       48 </v>
   <v type="int" >        2       33       34       48       48 </v>
   <v type="int" >        2       34       48       48       49 </v>
   <v type="int" >        2       34       35       35       49 </v>
   <v type="int" >        2       35       35       49       50 </v>
   <v type="int" >        2       35       49       50       50 </v>
   <v type="int" >        2       34       34       35       49 </v>
   <v type="int" >        2       34       35       49       49 </v>
   <v type="int" >        2       35       49       49       50 </v>
   <v type="int" >        2       35       36       36       50 </v>
   <v type="int" >        2       36       36       50       51 </v>
   <v type="int" >        2       36       50       51       51 </v>
   <v type="int" >        2       35       35       36       50 </v>
   <v type="int" >        2       35       36       50       50 </v>
   <v type="int" >        2       36       50       50       51 </v>
   <v type="int" >        2       36       37       37       51 </v>
   <v type="int" >        2       37       37       51       52 </v>
   <v type="int" >        2       37       51       52       52 </v>
   <v type="int" >        2       36       36       37       51 </v>
   <v type="int" >        2       36       37       51       51 </v>
   <v type="int" >        2       37       51       51       52 </v>
   <v type="int" >        2       37       38       38       52 </v>
   <v type="int" >        2       38       38       52       53 </v>
   <v type="int" >        2       38       52       53       53 </v>
   <v type="int" >        2       37       37       38       52 </v>
   <v type="int" >        2       37       38       52       52 </v>
   <v type="int" >        2       38       52       52       53 </v>
   <v type="int" >        2       24       24       38       53 </v>
   <v type="int" >        2       24       24       39       53 </v>
   <v type="int" >        2       24       39       39       53 </v>
   <v type="int" >        2       24       38       38       53 </v>
   <v type="int" >        2       24       38       53       53 </v>
   <v type="int" >        2       24       39       53       53 </v>
   <v type="int" >        2       39       40       40       54 </v>
   <v type="int" >        2       40       40       54       55 </v>
   <v type="int" >        2       40       54       55       55 </v>
   <v type="int" >        2       39       39       40       54 </v>
   <v type="int" >        2       39       40       54       54 </v>
   <v type="int" >        2       40       54       54       55 </v>
   <v type="int" >        2       40       41       41       55 </v>
   <v type="int" >        2       41       41       55       56 </v>
   <v type="int" >        2       41       55       56       56 </v>
   <v type="int" >        2       40       40       41       55 </v>
   <v type="int" >        2       40       41       55       55 </v>
   <v type="int" >        2       41       55       55       56 </v>
   <v type="int" >        2       41       42       42       56 </v>
   <v type="int" >        2       42       42       56       57 </v>
   <v type="int" >        2       42       56       57       57 </v>
   <v type="int" >        2       41       41       42       56 </v>
   <v type="int" >        2       41       42       56       56 </v>
   <v type="int" >        2       42       56       56       57 </v>
   <v type="int" >        2       42       43       43       57 </v>
   <v type="int" >        2       43       43       57       58 </v>
   <v type="int" >        2       43       57       58       58 </v>
   <v type="int" >        2       42       42       43       57 </v>
   <v type="int" >        2       42       43       57       57 </v>
   <v type="int" >        2       43       57       57       58 </v>
   <v type="int" >        2       43       44       44       58 </v>
   <v type="int" >        2       44       44       58       59 </v>
   <v type="int" >        2       44       58       59       59 </v>
   <v type="int" >        2       43       43       44       58 </v>
   <v type="int" >        2       43       44       58       58 </v>
   <v type="int" >        2       44       58       58       59 </v>
   <v type="int" >        2       44       45       45       59 </v>
   <v type="int" >        2       45       45       59       60 </v>
   <v type="int" >        2       45       59       60       60 </v>
   <v type="int" >        2       44       44       45       59 </v>
   <v type="int" >        2       44       45       59       59 </v>
   <v type="int" >        2       45       59       59       60 </v>
   <v type="int" >        2       45       46       46       60 </v>
   <v type="int" >        2       46       46       60       61 </v>
   <v type="int" >        2       46       60       61       61 </v>
   <v type="int" >        2       45       45       46       60 </v>
   <v type="int" >        2       45       46       60       60 </v>
   <v type="int" >        2       46       60       60       61 </v>
   <v type="int" >        2       46       47       47       61 </v>
   <v type="int" >        2       47       47       61       62 </v>
   <v type="int" >        2       47       61       62       62 </v>
   <v type="int" >        2       46       46       47       61 </v>
   <v type="int" >        2       46       47       61       61 </v>
   <v type="int" >        2       47       61       61       62 </v>
   <v type="int" >        2       47       48       48       62 </v>
   <v type="int" >        2       48       48       62       63 </v>
   <v type="int" >        2       48       62       63       63 </v>
   <v type="int" >        2       47       47       48       62 </v>
   <v type="int" >        2       47       48       62       62 </v>
   <v type="int" >        2       48       62       62       63 </v>
   <v type="int" >        2       48       49       49       63 </v>
   <v type="int" >        2       49       49       63       64 </v>
   <v type="int" >        2       49       63       64       64 </v>
   <v type="int" >        2       48       48       49       63 </v>
   <v type="int" >        2       48       49       63       63 </v>
   <v type="int" >        2       49       63       63       64 </v>
   <v type="int" >        2       49       50       50       64 </v>
   <v type="int" >        2       50       50       64       65 </v>
   <v type="int" >        2       50       64       65       65 </v>
   <v type="int" >        2       49       49       50       64 </v>
   <v type="int" >        2       49       50       64       64 </v>
   <v type="int" >        2       50       64       64       65 </v>
   <v type="int" >        2       50       51       51       65 </v>
   <v type="int" >        2       51       51       65       66 </v>
   <v type="int" >        2       51       65       66       66 </v>
   <v type="int" >        2       50       50       51       65 </v>
   <v type="int" >        2       50       51       65       65 </v>
   <v type="int" >        2       51       65       65       66 </v>
   <v type="int" >        2       51       52       52       66 </v>
   <v type="int" >        2       52       52       66       67 </v>
   <v type="int" >        2       52       66       67       67 </v>
   <v type="int" >        2       51       51       52       66 </v>
   <v type="int" >        2       51       52       66       66 </v>
   <v type="int" >        2       52       66       66       67 </v>
   <v type="int" >        2       52       53       53       67 </v>
   <v type="int" >        2       53       53       67       68 </v>
   <v type="int" >        2       53       67       68       68 </v>
   <v type="int" >        2       52       52       53       67 </v>
   <v type="int" >        2       52       53       67       67 </v>
   <v type="int" >        2       53       67       67       68 </v>
   <v type="int" >        2       39       39       53       68 </v>
   <v type="int" >        2       39       39       54       68 </v>
   <v type="int" >        2       39       54       54       68 </v>
   <v type="int" >        2       39       53       53       68 </v>
   <v type="int" >        2       39       53       68       68 </v>
   <v type="int" >        2       39       54       68       68 </v>
   <v type="int" >        2       54       55       55       69 </v>
   <v type="int" >        2       55       55       69       70 </v>
   <v type="int" >        2       55       69       70       70 </v>
   <v type="int" >        2       54       54       55       69 </v>
   <v type="int" >        2       54       55       69       69 </v>
   <v type="int" >        2       55       69       69       70 </v>
   <v type="int" >        2       55       56       56       70 </v>
   <v type="int" >        2       56       56       70       71 </v>
   <v type="int" >        2       56       70       71       71 </v>
   <v type="int" >        2       55       55       56       70 </v>
   <v type="int" >        2       55       56       70       70 </v>
   <v type="int" >        2       56       70       70       71 </v>
   <v type="int" >        2       56       57       57       71 </v>
   <v type="int" >        2       57       57       71       72 </v>
   <v type="int" >        2       57       71       72       72 </v>
   <v type="int" >        2       56       56       57       71 </v>
   <v type="int" >        2       56       57       71       71 </v>
   <v type="int" >        2       57       71       71       72 </v>
   <v type="int" >        2       57       58       58       72 </v>
   <v type="int" >        2       58       58       72       73 </v>
   <v type="int" >        2       58       72       73       73 </v>
   <v type="int" >        2       57       57       58       72 </v>
   <v type="int" >        2       57       58       72       72 </v>
   <v type="int" >        2       58       72       72       73 </v>
   <v type="int" >        2       58       59       59       73 </v>
   <v type="int" >        2       59       59       73       74 </v>
   <v type="int" >        2       59       73       74       74 </v>
   <v type="int" >        2       58       58       59       73 </v>
   <v type="int" >        2       58       59       73       73 </v>
   <v type="int" >        2       59       73       73       74 </v>
   <v type="int" >        2       59       60       60       74 </v>
   <v type="int" >        2       60       60       74       75 </v>
   <v type="int" >        2       60       74       75       75 </v>
   <v type="int" >        2       59       59       60       74 </v>
   <v type="int" >        2       59       60       74       74 </v>
   <v type="int" >        2       60       74       74       75 </v>
   <v type="int" >        2       60       61       61       75 </v>
   <v type="int" >        2       61       61       75       76 </v>
   <v type="int" >        2       61       75       76       76 </v>
   <v type="int" >        2       60       60       61       75 </v>
   <v type="int" >        2       60       61       75       75 </v>
   <v type="int" >        2       61       75       75       76 </v>
   <v type="int" >        2       61       62       62       76 </v>
   <v type="int" >        2       62       62       76       77 </v>
   <v type="int" >        2       62       76       77       77 </v>
   <v type="int" >        2       61       61       62       76 </v>
   <v type="int" >        2       61       62       76       76 </v>
   <v type="int" >        2       62       76       76       77 </v>
   <v type="int" >        2       62       63       63       77 </v>
   <v type="int" >        2       63       63       77       78 </v>
   <v type="int" >        2       63       77       78       78 </v>
   <v type="int" >        2       62       62       63       77 </v>
   <v type="int" >        2       62       63       77       77 </v>
   <v type="int" >        2       63       77       77       78 </v>
   <v type="int" >        2       63       64       64       78 </v>
   <v type="int" >        2       64       64       78       79 </v>
   <v type="int" >        2       64       78       79       79 </v>
   <v type="int" >        2       63       63       64       78 </v>
   <v type="int" >        2       63       64       78       78 </v>
   <v type="int" >        2       64       78       78       79 </v>
   <v type="int" >        2       64       65       65       79 </v>
   <v type="int" >        2       65       65       79       80 </v>
   <v type="int" >        2       65       79       80       80 </v>
   <v type="int" >        2       64       64       65       79 </v>
   <v type="int" >        2       64       65       79       79 </v>
   <v type="int" >        2       65       79       79       80 </v>
   <v type="int" >        2       65       66       66       80 </v>
   <v type="int" >        2       66       66       80       81 </v>
   <v type="int" >        2       66       80       81       81 </v>
   <v type="int" >        2       65       65       66       80 </v>
   <v type="int" >        2       65       66       80       80 </v>
   <v type="int" >        2       66       80       80       81 </v>
   <v type="int" >        2       66       67       67       81 </v>
   <v type="int" >        2       67       67       81       82 </v>
   <v type="int" >        2       67       81       82       82 </v>
   <v type="int" >        2       66       66       67       81 </v>
   <v type="int" >        2       66       67       81       81 </v>
   <v type="int" >        2       67       81       81       82 </v>
   <v type="int" >        2       67       68       68       82 </v>
   <v type="int" >        2       68       68       82       83 </v>
   <v type="int" >        2       68       82       83       83 </v>
   <v type="int" >        2       67       67       68       82 </v>
   <v type="int" >        2       67       68       82       82 </v>
   <v type="int" >        2       68       82       82       83 </v>
   <v type="int" >        2       54       54       68       83 </v>
   <v type="int" >        2       54       54       69       83 </v>
   <v type="int" >        2       54       69       69       83 </v>
   <v type="int" >        2       54       68       68       83 </v>
   <v type="int" >        2       54       68       83       83 </v>
   <v type="int" >        2       54       69       83       83 </v>
   <v type="int" >        2       69       70       70       84 </v>
   <v type="int" >        2       70       70       84       85 </v>
   <v type="int" >        2       70       84       85       85 </v>
   <v type="int" >        2       69       69       70       84 </v>
   <v type="int" >        2       69       70       84       84 </v>
   <v type="int" >        2       70       84       84       85 </v>
   <v type="int" >        2       70       71       71       85 </v>
   <v type="int" >        2       71       71       85       86 </v>
   <v type="int" >        2       71       85       86       86 </v>
   <v type="int" >        2       70       70       71       85 </v>
   <v type="int" >        2       70       71       85       85 </v>
   <v type="int" >        2       71       85       85       86 </v>
   <v type="int" >        2       71       72       72       86 </v>
   <v type="int" >        2       72       72       86       87 </v>
   <v type="int" >        2       72       86       87       87 </v>
   <v type="int" >        2       71       71       72       86 </v>
   <v type="int" >        2       71       72       86       86 </v>
   <v type="int" >        2       72       86       86       87 </v>
   <v type="int" >        2       72       73       73       87 </v>
   <v type="int" >        2       73       73       87       88 </v>
   <v type="int" >        2       73       87       88       88 </v>
   <v type="int" >        2       72       72       73       87 </v>
   <v type="int" >        2       72       73       87       87 </v>
   <v type="int" >        2       73       87       87       88 </v>
   <v type="int" >        2       73       74       74       88 </v>
   <v type="int" >        2       74       74       88       89 </v>
   <v type="int" >        2       74       88       89       89 </v>
   <v type="int" >        2       73       73       74       88 </v>
   <v type="int" >        2       73       74       88       88 </v>
   <v type="int" >        2       74       88       88       89 </v>
   <v type="int" >        2       74       75       75       89 </v>
   <v type="int" >        2       75       75       89       90 </v>
   <v type="int" >        2       75       89       90       90 </v>
   <v type="int" >        2       74       74       75       89 </v>
   <v type="int" >        2       74       75       89       89 </v>
   <v type="int" >        2       75       89       89       90 </v>
   <v type="int" >        2       75       76       76       90 </v>
   <v type="int" >        2       76       76       90       91 </v>
   <v type="int" >        2       76       90       91       91 </v>
   <v type="int" >        2       75       75       76       90 </v>
   <v type="int" >        2       75       76       90       90 </v>
   <v type="int" >        2       76       90       90       91 </v>
   <v type="int" >        2       76       77       77       91 </v>
   <v type="int" >        2       77       77       91       92 </v>
   <v type="int" >        2       77       91       92       92 </v>
   <v type="int" >        2       76       76       77       91 </v>
   <v type="int" >        2       76       77       91       91 </v>
   <v type="int" >        2       77       91       91       92 </v>
   <v type="int" >        2       77       78       78       92 </v>
   <v type="int" >        2       78       78       92       93 </v>
   <v type="int" >        2       78       92       93       93 </v>
   <v type="int" >        2       77       77       78       92 </v>
   <v type="int" >        2       77       78       92       92 </v>
   <v type="int" >        2       78       92       92       93 </v>
   <v type="int" >        2       78       79       79       93 </v>
   <v type="int" >        2       79       79       93       94 </v>
   <v type="int" >        2       79       93       94       94 </v>
   <v type="int" >        2       78       78       79       93 </v>
   <v type="int" >        2       78       79       93       93 </v>
   <v type="int" >        2       79       93       93       94 </v>
   <v type="int" >        2       79       80       80       94 </v>
   <v type="int" >        2       80       80       94       95 </v>
   <v type="int" >        2       80       94       95       95 </v>
   <v type="int" >        2       79       79       80       94 </v>
   <v type="int" >        2       79       80       94       94 </v>
   <v type="int" >        2       80       94       94       95 </v>
   <v type="int" >        2       80       81       81       95 </v>
   <v type="int" >        2       81       81       95       96 </v>
   <v type="int" >        2       81       95       96       96 </v>
   <v type="int" >        2       80       80       81       95 </v>
   <v type="int" >        2       80       81       95       95 </v>
   <v type="int" >        2       81       95       95       96 </v>
   <v type="int" >        2       81       82       82       96 </v>
   <v type="int" >        2       82       82       96       97 </v>
   <v type="int" >        2       82       96       97       97 </v>
   <v type="int" >        2       81       81       82       96 </v>
   <v type="int" >        2       81       82       96       96 </v>
   <v type="int" >        2       82       96       96       97 </v>
   <v type="int" >        2       82       83       83       97 </v>
   <v type="int" >        2       83       83       97       98 </v>
   <v type="int" >        2       83       97       98       98 </v>
   <v type="int" >        2       82       82       83       97 </v>
   <v type="int" >        2       82       83       97       97 </v>
   <v type="int" >        2       83       97       97       98 </v>
   <v type="int" >        2       69       69       83       98 </v>
   <v type="int" >        2       69       69       84       98 </v>
   <v type="int" >        2       69       84       84       98 </v>
   <v type="int" >        2       69       83       83       98 </v>
   <v type="int" >        2       69       83       98       98 </v>
   <v type="int" >        2       69       84       98       98 </v>
   <v type="int" >        2       84       85       85       99 </v>
   <v type="int" >        2       85       85       99      100 </v>
   <v type="int" >        2       85       99      100      100 </v>
   <v type="int" >        2       84       84       85       99 </v>
   <v type="int" >        2       84       85       99       99 </v>
   <v type="int" >        2       85       99       99      100 </v>
   <v type="int" >        2       85       86       86      100 </v>
   <v type="int" >        2       86       86      100      101 </v>
   <v type="int" >        2       86      100      101      101 </v>
   <v type="int" >        2       85       85       86      100 </v>
   <v type="int" >        2       85       86      100      100 </v>
   <v type="int" >        2       86      100      100      101 </v>
   <v type="int" >        2       86       87       87      101 </v>
   <v type="int" >        2       87       87      101      102 </v>
   <v type="int" >        2       87      101      102      102 </v>
   <v type="int" >        2       86       86       87      101 </v>
   <v type="int" >        2       86       87      101      101 </v>
   <v type="int" >        2       87      101      101      102 </v>
   <v type="int" >        2       87       88       88      102 </v>
   <v type="int" >        2       88       88      102      103 </v>
   <v type="int" >        2       88      102      103      103 </v>
   <v type="int" >        2       87       87       88      102 </v>
   <v type="int" >        2       87       88      102      102 </v>
   <v type="int" >        2       88      102      102      103 </v>
   <v type="int" >        2       88       89       89      103 </v>
   <v type="int" >        2       89       89      103      104 </v>
   <v type="int" >        2       89      103      104      104 </v>
   <v type="int" >        2       88       88       89      103 </v>
   <v type="int" >        2       88       89      103      103 </v>
   <v type="int" >        2       89      103      103      104 </v>
   <v type="int" >        2       89       90       90      104 </v>
   <v type="int" >        2       90       90      104      105 </v>
   <v type="int" >        2       90      104      105      105 </v>
   <v type="int" >        2       89       89       90      104 </v>
   <v type="int" >        2       89       90      104      104 </v>
   <v type="int" >        2       90      104      104      105 </v>
   <v type="int" >        2       90       91       91      105 </v>
   <v type="int" >        2       91       91      105      106 </v>
   <v type="int" >        2       91      105      106      106 </v>
   <v type="int" >        2       90       90       91      105 </v>
   <v type="int" >        2       90       91      105      105 </v>
   <v type="int" >        2       91      105      105      106 </v>
   <v type="int" >        2       91       92       92      106 </v>
   <v type="int" >        2       92       92      106      107 </v>
   <v type="int" >        2       92      106      107      107 </v>
   <v type="int" >        2       91       91       92      106 </v>
   <v type="int" >        2       91       92      106      106 </v>
   <v type="int" >        2       92      106      106      107 </v>
   <v type="int" >        2       92       93       93      107 </v>
   <v type="int" >        2       93       93      107      108 </v>
   <v type="int" >        2       93      107      108      108 </v>
   <v type="int" >        2       92       92       93      107 </v>
   <v type="int" >        2       92       93      107      107 </v>
   <v type="int" >        2       93      107      107      108 </v>
   <v type="int" >        2       93       94       94      108 </v>
   <v type="int" >        2       94       94      108      109 </v>
   <v type="int" >        2       94      108      109      109 </v>
   <v type="int" >        2       93       93       94      108 </v>
   <v type="int" >        2       93       94      108      108 </v>
   <v type="int" >        2       94      108      108      109 </v>
   <v type="int" >        2       94       95       95      109 </v>
   <v type="int" >        2       95       95      109      110 </v>
   <v type="int" >        2       95      109      110      110 </v>
   <v type="int" >        2       94       94       95      109 </v>
   <v type="int" >        2       94       95      109      109 </v>
   <v type="int" >        2       95      109      109      110 </v>
   <v type="int" >        2       95       96       96      110 </v>
   <v type="int" >        2       96       96      110      111 </v>
   <v type="int" >        2       96      110      111      111 </v>
   <v type="int" >        2       95       95       96      110 </v>
   <v type="int" >        2       95       96      110      110 </v>
   <v type="int" >        2       96      110      110      111 </v>
   <v type="int" >        2       96       97       97      111 </v>
   <v type="int" >        2       97       97      111      112 </v>
   <v type="int" >        2       97      111      112      112 </v>
   <v type="int" >        2       96       96       97      111 </v>
   <v type="int" >        2       96       97      111      111 </v>
   <v type="int" >        2       97      111      111      112 </v>
   <v type="int" >        2       97       98       98      112 </v>
   <v type="int" >        2       98       98      112      113 </v>
   <v type="int" >        2       98      112      113      113 </v>
   <v type="int" >        2       97       97       98      112 </v>
   <v type="int" >        2       97       98      112      112 </v>
   <v type="int" >        2       98      112      112      113 </v>
   <v type="int" >        2       84       84       98      113 </v>
   <v type="int" >        2       84       84       99      113 </v>
   <v type="int" >        2       84       99       99      113 </v>
   <v type="int" >        2       84       98       98      113 </v>
   <v type="int" >        2       84       98      113      113 </v>
   <v type="int" >        2       84       99      113      113 </v>
   <v type="int" >        2       99       99      100      100 </v>
   <v type="int" >        2       99      100      100      113 </v>
   <v type="int" >        2       99      100      113      113 </v>
   <v type="int" >        4       99       99       99      100 </v>
   <v type="int" >        2       99       99      100      113 </v>
   <v type="int" >        2      100      101      101      113 </v>
   <v type="int" >        2      101      101      112      113 </v>
   <v type="int" >        2      101      112      112      113 </v>
   <v type="int" >        2      100      100      101      113 </v>
   <v type="int" >        2      100      101      113      113 </v>
   <v type="int" >        2      101      112      113      113 </v>
   <v type="int" >        2      101      102      102      112 </v>
   <v type="int" >        2      102      102      111      112 </v>
   <v type="int" >        2      102      111      111      112 </v>
   <v type="int" >        2      101      101      102      112 </v>
   <v type="int" >        2      101      102      112      112 </v>
   <v type="int" >        2      102      111      112      112 </v>
   <v type="int" >        2      102      103      103      111 </v>
   <v type="int" >        2      103      103      110      111 </v>
   <v type="int" >        2      103      110      110      111 </v>
   <v type="int" >        2      102      102      103      111 </v>
   <v type="int" >        2      102      103      111      111 </v>
   <v type="int" >        2      103      110      111      111 </v>
   <v type="int" >        2      103      104      104      110 </v>
   <v type="int" >        2      104      104      109      110 </v>
   <v type="int" >        2      104      109      109      110 </v>
   <v type="int" >        2      103      103      104      110 </v>
   <v type="int" >        2      103      104      110      110 </v>
   <v type="int" >        2      104      109      110      110 </v>
   <v type="int" >        2      104      105      105      109 </v>
   <v type="int" >        2      105      105      108      109 </v>
   <v type="int" >        2      105      108      108      109 </v>
   <v type="int" >        2      104      104      105      109 </v>
   <v type="int" >        2      104      105      109      109 </v>
   <v type="int" >        2      105      108      109      109 </v>
   <v type="int" >        2      105      106      106      108 </v>
   <v type="int" >        2      106      106      107      108 </v>
   <v type="int" >        2      106      107      107      108 </v>
   <v type="int" >        2      105      105      106      108 </v>
   <v type="int" >        2      105      106      108      108 </v>
   <v type="int" >        2      106      107      108      108 </v>
   <v type="int" >        4      106      107      107      107 </v>
   <v type="int" >        2      106      106      107      107 </v>
  </varray>
  <i name="volumeweight">      0.00074074 </i>
 </kpoints>
 <parameters>
  <separator name="general" >
   <i type="string" name="SYSTEM">Graphene SCF</i>
   <i type="logical" name="LCOMPAT"> F  </i>
  </separator>
  <separator name="electronic" >
   <i type="string" name="PREC">accura</i>
   <i name="ENMAX">    550.00000000</i>
   <i name="ENAUG">    644.87300000</i>
   <i name="EDIFF">      0.00000100</i>
   <i type="int" name="IALGO">    38</i>
   <i type="int" name="IWAVPR">    10</i>
   <i type="int" name="NBANDS">    16</i>
   <i name="NELECT">      8.00000000</i>
   <i type="int" name="TURBO">     0</i>
   <i type="int" name="IRESTART">     0</i>
   <i type="int" name="NREBOOT">     0</i>
   <i type="int" name="NMIN">     0</i>
   <i name="EREF">      0.00000000</i>
   <separator name="electronic smearing" >
    <i type="int" name="ISMEAR">    -5</i>
    <i name="SIGMA">      0.05000000</i>
    <i name="KSPACING">      0.50000000</i>
    <i type="logical" name="KGAMMA"> T  </i>
   </separator>
   <separator name="electronic projectors" >
    <i type="logical" name="LREAL"> F  </i>
    <v name="ROPT">      0.00000000</v>
    <i type="int" name="LMAXPAW">  -100</i>
    <i type="int" name="LMAXMIX">     2</i>
    <i type="logical" name="NLSPLINE"> F  </i>
   </separator>
   <separator name="electronic startup" >
    <i type="int" name="ISTART">     1</i>
    <i type="int" name="ICHARG">    11</i>
    <i type="int" name="INIWAV">     1</i>
   </separator>
   <separator name="electronic spin" >
    <i type="int" name="ISPIN">     1</i>
    <i type="logical" name="LNONCOLLINEAR"> F  </i>
    <v name="MAGMOM">      1.00000000      1.00000000</v>
    <i name="NUPDOWN">     -1.00000000</i>
    <i type="logical" name="LSORBIT"> F  </i>
    <v name="SAXIS">      0.00000000      0.00000000      1.00000000</v>
    <i type="logical" name="LSPIRAL"> F  </i>
    <v name="QSPIRAL">      0.00000000      0.00000000      0.00000000</v>
    <i type="logical" name="LZEROZ"> F  </i>
   </separator>
   <separator name="electronic exchange-correlation" >
    <i type="logical" name="LASPH"> F  </i>
    <i type="logical" name="LMETAGGA"> F  </i>
   </separator>
   <separator name="electronic convergence" >
    <i type="int" name="NELM">    60</i>
    <i type="int" name="NELMDL">     0</i>
    <i type="int" name="NELMIN">     2</i>
    <i name="ENINI">    550.00000000</i>
    <separator name="electronic convergence detail" >
     <i type="logical" name="LDIAG"> T  </i>
     <i type="logical" name="LSUBROT"> F  </i>
     <i name="WEIMIN">      0.00000000</i>
     <i name="EBREAK">      0.00000002</i>
     <i name="DEPER">      0.30000000</i>
     <i type="int" name="NRMM">     4</i>
     <i name="TIME">      0.40000000</i>
    </separator>
   </separator>
   <separator name="electronic mixer" >
    <i name="AMIX">      0.40000000</i>
    <i name="BMIX">      1.00000000</i>
    <i name="AMIN">      0.10000000</i>
    <i name="AMIX_MAG">      1.60000000</i>
    <i name="BMIX_MAG">      1.00000000</i>
    <separator name="electronic mixer details" >
     <i type="int" name="IMIX">     4</i>
     <i type="logical" name="MIXFIRST"> F  </i>
     <i type="int" name="MAXMIX">   -45</i>
     <i name="WC">    100.00000000</i>
     <i type="int" name="INIMIX">     1</i>
     <i type="int" name="MIXPRE">     1</i>
     <i type="int" name="MREMOVE">     5</i>
    </separator>
   </separator>
   <separator name="electronic dipolcorrection" >
    <i type="logical" name="LDIPOL"> F  </i>
    <i type="logical" name="LMONO"> F  </i>
    <i type="int" name="IDIPOL">     0</i>
    <i name="EPSILON">      1.00000000</i>
    <v name="DIPOL">   -100.00000000   -100.00000000   -100.00000000</v>
    <i name="EFIELD">      0.00000000</i>
   </separator>
  </separator>
  <separator name="grids" >
   <i type="int" name="NGX">    20</i>
   <i type="int" name="NGY">    20</i>
   <i type="int" name="NGZ">   160</i>
   <i type="int" name="NGXF">    40</i>
   <i type="int" name="NGYF">    40</i>
   <i type="int" name="NGZF">   320</i>
   <i type="logical" name="ADDGRID"> F  </i>
  </separator>
  <separator name="ionic" >
   <i type="int" name="NSW">     0</i>
   <i type="int" name="IBRION">    -1</i>
   <i type="int" name="MDALGO">     0</i>
   <i type="int" name="ISIF">     2</i>
   <i name="PSTRESS">      0.00000000</i>
   <i name="EDIFFG">     -0.01000000</i>
   <i type="int" name="NFREE">     0</i>
   <i name="POTIM">      0.50000000</i>
   <i name="SMASS">     -3.00000000</i>
   <i name="SCALEE">      1.00000000</i>
  </separator>
  <separator name="ionic md" >
   <i name="TEBEG">      0.00010000</i>
   <i name="TEEND">      0.00010000</i>
   <i type="int" name="NBLOCK">     1</i>
   <i type="int" name="KBLOCK">     1</i>
   <i type="int" name="NPACO">   256</i>
   <i name="APACO">     16.00000000</i>
  </separator>
  <separator name="symmetry" >
   <i type="int" name="ISYM">     2</i>
   <i name="SYMPREC">      0.00001000</i>
  </separator>
  <separator name="dos" >
   <i type="int" name="LORBIT">    11</i>
   <v name="RWIGS">     -1.00000000</v>
   <i type="int" name="NEDOS">  3000</i>
   <i name="EMIN">     10.00000000</i>
   <i name="EMAX">    -10.00000000</i>
   <i name="EFERMI">      0.00000000</i>
  </separator>
  <separator name="writing" >
   <i type="int" name="NWRITE">     2</i>
   <i type="logical" name="LWAVE"> F  </i>
   <i type="logical" name="LDOWNSAMPLE"> F  </i>
   <i type="logical" name="LCHARG"> F  </i>
   <i type="logical" name="LPARD"> F  </i>
   <i type="logical" name="LVTOT"> F  </i>
   <i type="logical" name="LVHAR"> F  </i>
   <i type="logical" name="LELF"> F  </i>
   <i type="logical" name="LOPTICS"> F  </i>
   <v name="STM">      0.00000000      0.00000000      0.00000000      0.00000000      0.00000000      0.00000000      0.00000000</v>
  </separator>
  <separator name="performance" >
   <i type="int" name="NPAR">    16</i>
   <i type="int" name="NSIM">     4</i>
   <i type="int" name="NBLK">    -1</i>
   <i type="logical" name="LPLANE"> T  </i>
   <i type="logical" name="LSCALAPACK"> T  </i>
   <i type="logical" name="LSCAAWARE"> F  </i>
   <i type="logical" name="LSCALU"> F  </i>
   <i type="logical" name="LASYNC"> F  </i>
   <i type="logical" name="LORBITALREAL"> F  </i>
  </separator>
  <separator name="miscellaneous" >
   <i type="int" name="IDIOT">     3</i>
   <i type="int" name="ISPECIAL">     0</i>
   <i type="logical" name="LMUSIC"> F  </i>
   <v name="POMASS">     12.01100000</v>
   <v name="DARWINR">      0.00000000</v>
   <v name="DARWINV">      1.00000000</v>
   <i type="logical" name="LCORR"> T  </i>
  </separator>
  <i type="logical" name="GGA_COMPAT"> T  </i>
  <i type="logical" name="LBERRY"> F  </i>
  <i type="int" name="ICORELEVEL">     0</i>
  <i type="logical" name="LDAU"> F  </i>
  <i type="int" name="I_CONSTRAINED_M">     0</i>
  <separator name="electronic exchange-correlation" >
   <i type="string" name="GGA">--</i>
   <i type="int" name="VOSKOWN">     0</i>
   <i type="logical" name="LHFCALC"> F  </i>
   <i type="string" name="PRECFOCK"></i>
   <i type="logical" name="LSYMGRAD"> F  </i>
   <i type="logical" name="LHFONE"> F  </i>
   <i type="logical" name="LRHFCALC"> F  </i>
   <i type="logical" name="LTHOMAS"> F  </i>
   <i type="logical" name="LMODELHF"> F  </i>
   <i name="ENCUT4O">     -1.00000000</i>
   <i type="int" name="EXXOEP">     0</i>
   <i type="int" name="FOURORBIT">     0</i>
   <i name="AEXX">      0.00000000</i>
   <i name="HFALPHA">      0.00000000</i>
   <i name="MCALPHA">      0.00000000</i>
   <i name="ALDAX">      1.00000000</i>
   <i name="AGGAX">      1.00000000</i>
   <i name="ALDAC">      1.00000000</i>
   <i name="AGGAC">      1.00000000</i>
   <i type="int" name="NKREDX">     1</i>
   <i type="int" name="NKREDY">     1</i>
   <i type="int" name="NKREDZ">     1</i>
   <i type="logical" name="SHIFTRED"> F  </i>
   <i type="logical" name="ODDONLY"> F  </i>
   <i type="logical" name="EVENONLY"> F  </i>
   <i type="int" name="LMAXFOCK">     0</i>
   <i type="int" name="NMAXFOCKAE">     0</i>
   <i type="logical" name="LFOCKAEDFT"> F  </i>
   <i name="HFSCREEN">      0.00000000</i>
   <i name="HFSCREENC">      0.00000000</i>
   <i type="int" name="NBANDSGWLOW">     0</i>
  </separator>
  <separator name="vdW DFT" >
   <i type="logical" name="LUSE_VDW"> F  </i>
   <i name="Zab_VDW">     -0.84910000</i>
   <i name="PARAM1">      0.12340000</i>
   <i name="PARAM2">      1.00000000</i>
   <i name="PARAM3">      0.00000000</i>
  </separator>
  <separator name="model GW" >
   <i type="int" name="MODEL_GW">     0</i>
   <i name="MODEL_EPS0">     31.54231800</i>
   <i name="MODEL_ALPHA">      1.00000000</i>
  </separator>
  <separator name="linear response parameters" >
   <i type="logical" name="LEPSILON"> F  </i>
   <i type="logical" name="LRPA"> F  </i>
   <i type="logical" name="LNABLA"> F  </i>
   <i type="logical" name="LVEL"> F  </i>
   <i type="int" name="KINTER">     0</i>
   <i name="CSHIFT">      0.10000000</i>
   <i name="OMEGAMAX">     -1.00000000</i>
   <i name="DEG_THRESHOLD">      0.00200000</i>
   <i name="RTIME">     -0.10000000</i>
   <i name="WPLASMAI">      0.00000000</i>
   <v name="DFIELD">      0.00000000      0.00000000      0.00000000</v>
   <v name="WPLASMA">      0.00000000      0.00000000      0.00000000      0.00000000      0.00000000      0.00000000      0.00000000      0.00000000      0.00000000</v>
  </separator>
  <separator name="orbital magnetization" >
   <i type="logical" name="NUCIND"> F  </i>
   <v name="MAGPOS">      0.00000000      0.00000000      0.00000000</v>
   <i type="logical" name="LNICSALL"> T  </i>
   <i type="logical" name="ORBITALMAG"> F  </i>
   <i type="logical" name="LMAGBLOCH"> F  </i>
   <i type="logical" name="LCHIMAG"> F  </i>
   <i type="logical" name="LGAUGE"> T  </i>
   <i type="int" name="MAGATOM">     0</i>
   <v name="MAGDIPOL">      0.00000000      0.00000000      0.00000000</v>
   <v name="AVECCONST">      0.00000000      0.00000000      0.00000000</v>
  </separator>
  <separator name="response functions" >
   <i type="logical" name="LADDER"> F  </i>
   <i type="logical" name="LRPAFORCE"> F  </i>
   <i type="logical" name="LFXC"> F  </i>
   <i type="logical" name="LHARTREE"> T  </i>
   <i type="int" name="IBSE">     0</i>
   <v type="int" name="KPOINT">    -1     0     0     0</v>
   <i type="logical" name="LTCTE"> F  </i>
   <i type="logical" name="LTETE"> F  </i>
   <i type="logical" name="LTRIPLET"> F  </i>
   <i type="logical" name="LFXCEPS"> F  </i>
   <i type="logical" name="LFXHEG"> F  </i>
   <i type="int" name="NATURALO">     2</i>
   <i type="logical" name="L2ORDER"> F  </i>
   <i type="logical" name="LMP2LT"> F  </i>
   <i type="logical" name="LUSEW"> F  </i>
   <i name="ENCUTGW">     -2.00000000</i>
   <i name="ENCUTGWSOFT">     -2.00000000</i>
   <i name="ENCUTLF">     -1.00000000</i>
   <i type="int" name="LMAXMP2">    -1</i>
   <i name="SCISSOR">      0.00000000</i>
   <i type="int" name="NOMEGA">     0</i>
   <i type="int" name="NOMEGAR">     0</i>
   <i type="int" name="NBANDSGW">    -1</i>
   <i type="int" name="NBANDSO">    -1</i>
   <i type="int" name="NBANDSV">    -1</i>
   <i type="int" name="NELM">     1</i>
   <i type="int" name="NELMHF">     1</i>
   <i type="int" name="DIM">     3</i>
   <i type="int" name="ANTIRES">     0</i>
   <i name="OMEGAMAX">    -30.00000000</i>
   <i name="OMEGAMIN">    -30.00000000</i>
   <i name="OMEGATL">   -200.00000000</i>
   <i type="int" name="OMEGAGRID">   140</i>
   <i name="CSHIFT">     -0.10000000</i>
   <i type="logical" name="SELFENERGY"> F  </i>
   <i type="logical" name="LSPECTRAL"> F  </i>
   <i type="logical" name="LSPECTRALGW"> F  </i>
   <i type="logical" name="LSINGLES"> F  </i>
   <i type="logical" name="LFERMIGW"> F  </i>
   <i type="logical" name="ODDONLYGW"> F  </i>
   <i type="logical" name="EVENONLYGW"> F  </i>
   <i type="int" name="NKREDLFX">     1</i>
   <i type="int" name="NKREDLFY">     1</i>
   <i type="int" name="NKREDLFZ">     1</i>
   <i type="int" name="MAXMEM">  2800</i>
   <i type="int" name="TELESCOPE">     0</i>
   <i type="int" name="TAUPAR">     1</i>
   <i type="int" name="OMEGAPAR">    -1</i>
   <i name="LAMBDA">      1.00000000</i>
  </separator>
  <separator name="External order field" >
   <i name="OFIELD_KAPPA">      0.00000000</i>
   <v name="OFIELD_K">      0.00000000      0.00000000      0.00000000</v>
   <i name="OFIELD_Q6_NEAR">      0.00000000</i>
   <i name="OFIELD_Q6_FAR">      0.00000000</i>
   <i name="OFIELD_A">      0.00000000</i>
  </separator>
 </parameters>
 <atominfo>
  <atoms>       2 </atoms>
  <types>       1 </types>
  <array name="atoms" >
   <dimension dim="1">ion</dimension>
   <field type="string">element</field>
   <field type="int">atomtype</field>
   <set>
    <rc><c>C </c><c>   1</c></rc>
    <rc><c>C </c><c>   1</c></rc>
   </set>
  </array>
  <array name="atomtypes" >
   <dimension dim="1">type</dimension>
   <field type="int">atomspertype</field>
   <field type="string">element</field>
   <field>mass</field>
   <field>valence</field>
   <field type="string">pseudopotential</field>
   <set>
    <rc><c>   2</c><c>C </c><c>     12.01100000</c><c>      4.00000000</c><c>  PAW_PBE C 08Apr2002                   </c></rc>
   </set>
  </array>
 </atominfo>
 <structure name="initialpos" >
  <crystal>
   <varray name="basis" >
    <v>       2.46810000       0.00000000       0.00000000 </v>
    <v>      -1.23000000       2.13000000       0.00000000 </v>
    <v>       0.00000000       0.00000000      20.00000000 </v>
   </varray>
   <i name="volume">    105.14106000 </i>
   <varray name="rec_basis" >
    <v>       0.40516997       0.23397139       0.00000000 </v>
    <v>       0.00000000       0.46948357       0.00000000 </v>
    <v>       0.00000000       0.00000000       0.05000000 </v>
   </varray>
  </crystal>
  <varray name="positions" >
   <v>       0.33338056       0.66671353       0.50000000 </v>
   <v>       0.66661944       0.33328647       0.50000000 </v>
  </varray>
 </structure>
 <calculation>
  <scstep>
   <time name="dav">    1.21    1.21</time>
   <time name="total">    1.25    1.25</time>
   <energy>
    <i name="alphaZ">      3.12520022 </i>
    <i name="ewald">   1297.56265207 </i>
    <i name="hartreedc">  -1544.54214840 </i>
    <i name="XCdc">     27.55985436 </i>
    <i name="pawpsdc">    835.55467392 </i>
    <i name="pawaedc">   -836.92263488 </i>
    <i name="eentropy">      0.00000000 </i>
    <i name="bandstr">    -94.76510927 </i>
    <i name="atom">    294.29880157 </i>
    <i name="e_fr_energy">    -18.12871042 </i>
    <i name="e_wo_entrp">    -18.12871042 </i>
    <i name="e_0_energy">    -18.12871042 </i>
   </energy>
  </scstep>
  <scstep>
   <time name="dav">    1.19    1.19</time>
   <time name="total">    1.21    1.21</time>
   <energy>
    <i name="e_fr_energy">    -18.44486349 </i>
    <i name="e_wo_entrp">    -18.44486349 </i>
    <i name="e_0_energy">    -18.44486349 </i>
   </energy>
  </scstep>
  <scstep>
   <time name="dav">    1.26    1.26</time>
   <time name="total">    1.28    1.28</time>
   <energy>
    <i name="e_fr_energy">    -18.44565069 </i>
    <i name="e_wo_entrp">    -18.44565069 </i>
    <i name="e_0_energy">    -18.44565069 </i>
   </energy>
  </scstep>
  <scstep>
   <time name="dav">    1.32    1.32</time>
   <time name="total">    1.34    1.34</time>
   <energy>
    <i name="e_fr_energy">    -18.44565489 </i>
    <i name="e_wo_entrp">    -18.44565489 </i>
    <i name="e_0_energy">    -18.44565489 </i>
   </energy>
  </scstep>
  <scstep>
   <time name="dav">    1.27    1.27</time>
   <time name="total">    1.29    1.29</time>
   <energy>
    <i name="alphaZ">      3.12520022 </i>
    <i name="ewald">   1297.56265207 </i>
    <i name="hartreedc">  -1544.54214840 </i>
    <i name="XCdc">     27.55985436 </i>
    <i name="pawpsdc">    835.55467392 </i>
    <i name="pawaedc">   -836.92263488 </i>
    <i name="eentropy">      0.00000000 </i>
    <i name="bandstr">    -95.08205380 </i>
    <i name="atom">    294.29880157 </i>
    <i name="e_fr_energy">    -18.44565495 </i>
    <i name="e_wo_entrp">    -18.44565495 </i>
    <i name="e_0_energy">    -18.44565495 </i>
   </energy>
  </scstep>
  <structure>
   <crystal>
    <varray name="basis" >
     <v>       2.46810000       0.00000000       0.00000000 </v>
     <v>      -1.23000000       2.13000000       0.00000000 </v>
     <v>       0.00000000       0.00000000      20.00000000 </v>
    </varray>
    <i name="volume">    105.14106000 </i>
    <varray name="rec_basis" >
     <v>       0.40516997       0.23397139       0.00000000 </v>
     <v>       0.00000000       0.46948357       0.00000000 </v>
     <v>       0.00000000       0.00000000       0.05000000 </v>
    </varray>
   </crystal>
   <varray name="positions" >
    <v>       0.33338056       0.66671353       0.50000000 </v>
    <v>       0.66661944       0.33328647       0.50000000 </v>
   </varray>
  </structure>
  <varray name="forces" >
   <v>       0.02755769       0.05026404       0.00000000 </v>
   <v>      -0.02755769      -0.05026404       0.00000000 </v>
  </varray>
  <varray name="stress" >
   <v>       2.32848459      -0.60225211       0.00000000 </v>
   <v>      -0.60225210       4.51876004       0.00000000 </v>
   <v>       0.00000000       0.00000000      -0.29287737 </v>
  </varray>
  <energy>
   <i name="e_fr_energy">    -18.44565495 </i>
   <i name="e_wo_entrp">    -18.44565495 </i>
   <i name="e_0_energy">      0.00000000 </i>
  </energy>
  <time name="totalsc">    7.12    7.12</time>
  <eigenvalues>
   <array>
    <dimension dim="1">band</dimension>
    <dimension dim="2">kpoint</dimension>
    <dimension dim="3">spin</dimension>
    <field>eigene</field>
    <field>occ</field>
    <set>
     <set comment="spin 1">
      <set comment="kpoint 1">
       <r>  -22.2745    1.0000 </r>
       <r>  -10.3732    1.0000 </r>
       <r>   -5.7740    1.0000 </r>
       <r>   -5.7612    1.0000 </r>
       <r>    0.5212    0.0000 </r>
       <r>    1.3202    0.0000 </r>
       <r>    1.6827    0.0000 </r>
       <r>    2.5931    0.0000 </r>
       <r>    3.0519    0.0000 </r>
       <r>    4.7230    0.0000 </r>
       <r>    5.3345    0.0000 </r>
       <r>    5.5485    0.0000 </r>
       <r>    5.6459    0.0000 </r>
       <r>    7.6687    0.0000 </r>
       <r>    8.4683    0.0000 </r>
       <r>    8.7069    0.0000 </r>
      </set>
      <set comment="kpoint 2">
       <r>  -22.1696    1.0000 </r>
       <r>  -10.2481    1.0000 </r>
       <r>   -6.2014    1.0000 </r>
       <r>   -5.9820    1.0000 </r>
       <r>    0.6634    0.0000 </r>
       <r>    1.4643    0.0000 </r>
       <r>    1.8286    0.0000 </r>
       <r>    2.7377    0.0000 </r>
       <r>    3.1960    0.0000 </r>
       <r>    4.8662    0.0000 </r>
       <r>    5.4576    0.0000 </r>
       <r>    5.6430    0.0000 </r>
       <r>    6.0888    0.0000 </r>
       <r>    7.8092    0.0000 </r>
       <r>    8.3417    0.0000 </r>
       <r>    8.6132    0.0000 </r>
      </set>
      <set comment="kpoint 3">
       <r>  -21.8558    1.0000 </r>
       <r>   -9.8747    1.0000 </r>
       <r>   -7.3366    1.0000 </r>
       <r>   -6.5399    1.0000 </r>
       <r>    1.0902    0.0000 </r>
       <r>    1.8962    0.0000 </r>
       <r>    2.2662    0.0000 </r>
       <r>    3.1710    0.0000 </r>
       <r>    3.6284    0.0000 </r>
       <r>    5.2943    0.0000 </r>
       <r>    5.6393    0.0000 </r>
       <r>    5.9497    0.0000 </r>
       <r>    7.3225    0.0000 </r>
       <r>    7.3236    0.0000 </r>
       <r>    8.2316    0.0000 </r>
       <r>    9.0448    0.0000 </r>
      </set>
      <set comment="kpoint 4">
       <r>  -21.3352    1.0000 </r>
       <r>   -9.2601    1.0000 </r>
       <r>   -8.8899    1.0000 </r>
       <r>   -7.2385    1.0000 </r>
       <r>    1.8011    0.0000 </r>
       <r>    2.6133    0.0000 </r>
       <r>    2.9956    0.0000 </r>
       <r>    3.8904    0.0000 </r>
       <r>    4.3474    0.0000 </r>
       <r>    5.5542    0.0000 </r>
       <r>    5.7982    0.0000 </r>
       <r>    6.0469    0.0000 </r>
       <r>    6.6432    0.0000 </r>
       <r>    8.9294    0.0000 </r>
       <r>    9.1183    0.0000 </r>
       <r>    9.7575    0.0000 </r>
      </set>
      <set comment="kpoint 5">
       <r>  -20.6121    1.0000 </r>
       <r>  -10.6246    1.0000 </r>
       <r>   -8.4196    1.0000 </r>
       <r>   -7.9190    1.0000 </r>
[...]
       </set>
       <set comment="band 12">
        <r>  0.0001  0.0047  0.0000  0.0327  0.0000  0.0000  0.0000  0.0000  0.0000 </r>
        <r>  0.0001  0.0047  0.0000  0.0327  0.0000  0.0000  0.0000  0.0000  0.0000 </r>
       </set>
       <set comment="band 13">
        <r>  0.0000  0.0000  0.0297  0.0000  0.0000  0.0000  0.0000  0.0000  0.0000 </r>
        <r>  0.0000  0.0000  0.0297  0.0000  0.0000  0.0000  0.0000  0.0000  0.0000 </r>
       </set>
       <set comment="band 14">
        <r>  0.0018  0.0033  0.0000  0.0043  0.0000  0.0000  0.0000  0.0000  0.0000 </r>
        <r>  0.0018  0.0033  0.0000  0.0043  0.0000  0.0000  0.0000  0.0000  0.0000 </r>
       </set>
       <set comment="band 15">
        <r>  0.0000  0.0000  0.0249  0.0000  0.0000  0.0000  0.0000  0.0000  0.0000 </r>
        <r>  0.0000  0.0000  0.0249  0.0000  0.0000  0.0000  0.0000  0.0000  0.0000 </r>
       </set>
       <set comment="band 16">
        <r>  0.0000  0.0004  0.0000  0.0029  0.0000  0.0000  0.0000  0.0000  0.0000 </r>
        <r>  0.0000  0.0004  0.0000  0.0029  0.0000  0.0000  0.0000  0.0000  0.0000 </r>
       </set>
      </set>
      <set comment="kpoint 109">
       <set comment="band 1">
        <r>  0.2658  0.0414  0.0000  0.0371  0.0000  0.0000  0.0000  0.0000  0.0000 </r>
        <r>  0.2658  0.0414  0.0000  0.0371  0.0000  0.0000  0.0000  0.0000  0.0000 </r>
       </set>
       <set comment="band 2">
        <r>  0.1630  0.0343  0.0000  0.1631  0.0000  0.0000  0.0000  0.0000  0.0000 </r>
        <r>  0.1630  0.0343  0.0000  0.1631  0.0000  0.0000  0.0000  0.0000  0.0000 </r>
       </set>
       <set comment="band 3">
        <r>  0.0281  0.2553  0.0000  0.0910  0.0000  0.0000  0.0000  0.0000  0.0000 </r>
        <r>  0.0281  0.2553  0.0000  0.0910  0.0000  0.0000  0.0000  0.0000  0.0000 </r>
       </set>
       <set comment="band 4">
        <r>  0.0000  0.0000  0.2408  0.0000  0.0000  0.0000  0.0000  0.0000  0.0000 </r>
        <r>  0.0000  0.0000  0.2408  0.0000  0.0000  0.0000  0.0000  0.0000  0.0000 </r>
       </set>
       <set comment="band 5">
        <r>  0.0000  0.0000  0.2598  0.0000  0.0000  0.0000  0.0000  0.0000  0.0000 </r>
        <r>  0.0000  0.0000  0.2598  0.0000  0.0000  0.0000  0.0000  0.0000  0.0000 </r>
       </set>
       <set comment="band 6">
        <r>  0.0055  0.0070  0.0000  0.0137  0.0000  0.0000  0.0000  0.0000  0.0000 </r>
        <r>  0.0055  0.0070  0.0000  0.0137  0.0000  0.0000  0.0000  0.0000  0.0000 </r>
       </set>
       <set comment="band 7">
        <r>  0.1353  0.0377  0.0000  0.0573  0.0000  0.0000  0.0000  0.0000  0.0000 </r>
        <r>  0.1353  0.0377  0.0000  0.0573  0.0000  0.0000  0.0000  0.0000  0.0000 </r>
       </set>
       <set comment="band 8">
        <r>  0.0000  0.0000  0.0192  0.0000  0.0000  0.0000  0.0000  0.0000  0.0000 </r>
        <r>  0.0000  0.0000  0.0192  0.0000  0.0000  0.0000  0.0000  0.0000  0.0000 </r>
       </set>
       <set comment="band 9">
        <r>  0.0009  0.0005  0.0000  0.0001  0.0000  0.0000  0.0000  0.0000  0.0000 </r>
        <r>  0.0009  0.0005  0.0000  0.0001  0.0000  0.0000  0.0000  0.0000  0.0000 </r>
       </set>
       <set comment="band 10">
        <r>  0.0000  0.0000  0.0112  0.0000  0.0000  0.0000  0.0000  0.0000  0.0000 </r>
        <r>  0.0000  0.0000  0.0112  0.0000  0.0000  0.0000  0.0000  0.0000  0.0000 </r>
       </set>
       <set comment="band 11">
        <r>  0.0023  0.0022  0.0000  0.0010  0.0000  0.0000  0.0000  0.0000  0.0000 </r>
        <r>  0.0023  0.0022  0.0000  0.0010  0.0000  0.0000  0.0000  0.0000  0.0000 </r>
       </set>
       <set comment="band 12">
        <r>  0.0000  0.0000  0.0218  0.0000  0.0000  0.0000  0.0000  0.0000  0.0000 </r>
        <r>  0.0000  0.0000  0.0218  0.0000  0.0000  0.0000  0.0000  0.0000  0.0000 </r>
       </set>
       <set comment="band 13">
        <r>  0.0024  0.0073  0.0000  0.0046  0.0000  0.0000  0.0000  0.0000  0.0000 </r>
        <r>  0.0024  0.0073  0.0000  0.0046  0.0000  0.0000  0.0000  0.0000  0.0000 </r>
       </set>
       <set comment="band 14">
        <r>  0.0129  0.0182  0.0000  0.1007  0.0000  0.0000  0.0000  0.0000  0.0000 </r>
        <r>  0.0129  0.0182  0.0000  0.1007  0.0000  0.0000  0.0000  0.0000  0.0000 </r>
       </set>
       <set comment="band 15">
        <r>  0.0000  0.0000  0.0208  0.0000  0.0000  0.0000  0.0000  0.0000  0.0000 </r>
        <r>  0.0000  0.0000  0.0208  0.0000  0.0000  0.0000  0.0000  0.0000  0.0000 </r>
       </set>
       <set comment="band 16">
        <r>  0.0000  0.0000  0.0147  0.0000  0.0000  0.0000  0.0000  0.0000  0.0000 </r>
        <r>  0.0000  0.0000  0.0147  0.0000  0.0000  0.0000  0.0000  0.0000  0.0000 </r>
       </set>
      </set>
      <set comment="kpoint 110">
       <set comment="band 1">
        <r>  0.2664  0.0518  0.0000  0.0247  0.0000  0.0000  0.0000  0.0000  0.0000 </r>
        <r>  0.2664  0.0518  0.0000  0.0247  0.0000  0.0000  0.0000  0.0000  0.0000 </r>
       </set>
       <set comment="band 2">
        <r>  0.1698  0.0622  0.0000  0.1424  0.0000  0.0000  0.0000  0.0000  0.0000 </r>
        <r>  0.1698  0.0622  0.0000  0.1424  0.0000  0.0000  0.0000  0.0000  0.0000 </r>
       </set>
       <set comment="band 3">
        <r>  0.0309  0.1945  0.0000  0.1315  0.0000  0.0000  0.0000  0.0000  0.0000 </r>
        <r>  0.0309  0.1945  0.0000  0.1315  0.0000  0.0000  0.0000  0.0000  0.0000 </r>
       </set>
       <set comment="band 4">
        <r>  0.0000  0.0000  0.2381  0.0000  0.0000  0.0000  0.0000  0.0000  0.0000 </r>
        <r>  0.0000  0.0000  0.2381  0.0000  0.0000  0.0000  0.0000  0.0000  0.0000 </r>
       </set>
       <set comment="band 5">
        <r>  0.0000  0.0000  0.2768  0.0000  0.0000  0.0000  0.0000  0.0000  0.0000 </r>
        <r>  0.0000  0.0000  0.2768  0.0000  0.0000  0.0000  0.0000  0.0000  0.0000 </r>
       </set>
       <set comment="band 6">
        <r>  0.0045  0.0062  0.0000  0.0039  0.0000  0.0000  0.0000  0.0000  0.0000 </r>
        <r>  0.0045  0.0062  0.0000  0.0039  0.0000  0.0000  0.0000  0.0000  0.0000 </r>
       </set>
       <set comment="band 7">
        <r>  0.0000  0.0000  0.0183  0.0000  0.0000  0.0000  0.0000  0.0000  0.0000 </r>
        <r>  0.0000  0.0000  0.0183  0.0000  0.0000  0.0000  0.0000  0.0000  0.0000 </r>
       </set>
       <set comment="band 8">
        <r>  0.0002  0.0007  0.0000  0.0006  0.0000  0.0000  0.0000  0.0000  0.0000 </r>
        <r>  0.0002  0.0007  0.0000  0.0006  0.0000  0.0000  0.0000  0.0000  0.0000 </r>
       </set>
       <set comment="band 9">
        <r>  0.0000  0.0000  0.0099  0.0000  0.0000  0.0000  0.0000  0.0000  0.0000 </r>
        <r>  0.0000  0.0000  0.0099  0.0000  0.0000  0.0000  0.0000  0.0000  0.0000 </r>
       </set>
       <set comment="band 10">
        <r>  0.0592  0.0498  0.0000  0.0762  0.0000  0.0000  0.0000  0.0000  0.0000 </r>
        <r>  0.0592  0.0498  0.0000  0.0762  0.0000  0.0000  0.0000  0.0000  0.0000 </r>
       </set>
       <set comment="band 11">
        <r>  0.0322  0.0172  0.0000  0.0160  0.0000  0.0000  0.0000  0.0000  0.0000 </r>
        <r>  0.0322  0.0172  0.0000  0.0160  0.0000  0.0000  0.0000  0.0000  0.0000 </r>
       </set>
       <set comment="band 12">
        <r>  0.0000  0.0000  0.0159  0.0000  0.0000  0.0000  0.0000  0.0000  0.0000 </r>
        <r>  0.0000  0.0000  0.0159  0.0000  0.0000  0.0000  0.0000  0.0000  0.0000 </r>
       </set>
       <set comment="band 13">
        <r>  0.0697  0.0594  0.0000  0.1265  0.0000  0.0000  0.0000  0.0000  0.0000 </r>
        <r>  0.0697  0.0594  0.0000  0.1265  0.0000  0.0000  0.0000  0.0000  0.0000 </r>
       </set>
       <set comment="band 14">
        <r>  0.0091  0.0000  0.0000  0.0120  0.0000  0.0000  0.0000  0.0000  0.0000 </r>
        <r>  0.0091  0.0000  0.0000  0.0120  0.0000  0.0000  0.0000  0.0000  0.0000 </r>
       </set>
       <set comment="band 15">
        <r>  0.0000  0.0000  0.0040  0.0000  0.0000  0.0000  0.0000  0.0000  0.0000 </r>
        <r>  0.0000  0.0000  0.0040  0.0000  0.0000  0.0000  0.0000  0.0000  0.0000 </r>
       </set>
       <set comment="band 16">
        <r>  0.0000  0.0000  0.0087  0.0000  0.0000  0.0000  0.0000  0.0000  0.0000 </r>
        <r>  0.0000  0.0000  0.0087  0.0000  0.0000  0.0000  0.0000  0.0000  0.0000 </r>
       </set>
      </set>
      <set comment="kpoint 111">
       <set comment="band 1">
        <r>  0.2662  0.0623  0.0000  0.0144  0.0000  0.0000  0.0000  0.0000  0.0000 </r>
        <r>  0.2662  0.0623  0.0000  0.0144  0.0000  0.0000  0.0000  0.0000  0.0000 </r>
       </set>
       <set comment="band 2">
        <r>  0.1708  0.1788  0.0000  0.0255  0.0000  0.0000  0.0000  0.0000  0.0000 </r>
        <r>  0.1708  0.1788  0.0000  0.0255  0.0000  0.0000  0.0000  0.0000  0.0000 </r>
       </set>
       <set comment="band 3">
        <r>  0.0301  0.0486  0.0000  0.2776  0.0000  0.0000  0.0000  0.0000  0.0000 </r>
        <r>  0.0301  0.0486  0.0000  0.2776  0.0000  0.0000  0.0000  0.0000  0.0000 </r>
       </set>
       <set comment="band 4">
        <r>  0.0000  0.0000  0.2380  0.0000  0.0000  0.0000  0.0000  0.0000  0.0000 </r>
        <r>  0.0000  0.0000  0.2380  0.0000  0.0000  0.0000  0.0000  0.0000  0.0000 </r>
       </set>
       <set comment="band 5">
        <r>  0.0000  0.0000  0.2772  0.0000  0.0000  0.0000  0.0000  0.0000  0.0000 </r>
        <r>  0.0000  0.0000  0.2772  0.0000  0.0000  0.0000  0.0000  0.0000  0.0000 </r>
       </set>
       <set comment="band 6">
        <r>  0.0045  0.0080  0.0000  0.0021  0.0000  0.0000  0.0000  0.0000  0.0000 </r>
        <r>  0.0045  0.0080  0.0000  0.0021  0.0000  0.0000  0.0000  0.0000  0.0000 </r>
       </set>
       <set comment="band 7">
        <r>  0.0000  0.0000  0.0183  0.0000  0.0000  0.0000  0.0000  0.0000  0.0000 </r>
        <r>  0.0000  0.0000  0.0183  0.0000  0.0000  0.0000  0.0000  0.0000  0.0000 </r>
       </set>
       <set comment="band 8">
        <r>  0.0002  0.0009  0.0000  0.0003  0.0000  0.0000  0.0000  0.0000  0.0000 </r>
        <r>  0.0002  0.0009  0.0000  0.0003  0.0000  0.0000  0.0000  0.0000  0.0000 </r>
       </set>
       <set comment="band 9">
        <r>  0.0000  0.0000  0.0098  0.0000  0.0000  0.0000  0.0000  0.0000  0.0000 </r>
        <r>  0.0000  0.0000  0.0098  0.0000  0.0000  0.0000  0.0000  0.0000  0.0000 </r>
       </set>
       <set comment="band 10">
        <r>  0.0728  0.0519  0.0000  0.0900  0.0000  0.0000  0.0000  0.0000  0.0000 </r>
        <r>  0.0728  0.0519  0.0000  0.0900  0.0000  0.0000  0.0000  0.0000  0.0000 </r>
       </set>
       <set comment="band 11">
        <r>  0.0200  0.0014  0.0000  0.0157  0.0000  0.0000  0.0000  0.0000  0.0000 </r>
        <r>  0.0200  0.0014  0.0000  0.0157  0.0000  0.0000  0.0000  0.0000  0.0000 </r>
       </set>
       <set comment="band 12">
        <r>  0.0000  0.0000  0.0158  0.0000  0.0000  0.0000  0.0000  0.0000  0.0000 </r>
        <r>  0.0000  0.0000  0.0158  0.0000  0.0000  0.0000  0.0000  0.0000  0.0000 </r>
       </set>
       <set comment="band 13">
        <r>  0.0660  0.0840  0.0000  0.0970  0.0000  0.0000  0.0000  0.0000  0.0000 </r>
        <r>  0.0660  0.0840  0.0000  0.0970  0.0000  0.0000  0.0000  0.0000  0.0000 </r>
       </set>
       <set comment="band 14">
        <r>  0.0113  0.0123  0.0000  0.0044  0.0000  0.0000  0.0000  0.0000  0.0000 </r>
        <r>  0.0113  0.0123  0.0000  0.0044  0.0000  0.0000  0.0000  0.0000  0.0000 </r>
       </set>
       <set comment="band 15">
        <r>  0.0000  0.0000  0.0037  0.0000  0.0000  0.0000  0.0000  0.0000  0.0000 </r>
        <r>  0.0000  0.0000  0.0037  0.0000  0.0000  0.0000  0.0000  0.0000  0.0000 </r>
       </set>
       <set comment="band 16">
        <r>  0.0000  0.0000  0.0086  0.0000  0.0000  0.0000  0.0000  0.0000  0.0000 </r>
        <r>  0.0000  0.0000  0.0086  0.0000  0.0000  0.0000  0.0000  0.0000  0.0000 </r>
       </set>
      </set>
      <set comment="kpoint 112">
       <set comment="band 1">
        <r>  0.2653  0.0723  0.0000  0.0066  0.0000  0.0000  0.0000  0.0000  0.0000 </r>
        <r>  0.2653  0.0723  0.0000  0.0066  0.0000  0.0000  0.0000  0.0000  0.0000 </r>
       </set>
       <set comment="band 2">
        <r>  0.1638  0.1928  0.0000  0.0045  0.0000  0.0000  0.0000  0.0000  0.0000 </r>
        <r>  0.1638  0.1928  0.0000  0.0045  0.0000  0.0000  0.0000  0.0000  0.0000 </r>
       </set>
       <set comment="band 3">
        <r>  0.0279  0.0104  0.0000  0.3354  0.0000  0.0000  0.0000  0.0000  0.0000 </r>
        <r>  0.0279  0.0104  0.0000  0.3354  0.0000  0.0000  0.0000  0.0000  0.0000 </r>
       </set>
       <set comment="band 4">
        <r>  0.0000  0.0000  0.2407  0.0000  0.0000  0.0000  0.0000  0.0000  0.0000 </r>
        <r>  0.0000  0.0000  0.2407  0.0000  0.0000  0.0000  0.0000  0.0000  0.0000 </r>
       </set>
       <set comment="band 5">
        <r>  0.0000  0.0000  0.2607  0.0000  0.0000  0.0000  0.0000  0.0000  0.0000 </r>
        <r>  0.0000  0.0000  0.2607  0.0000  0.0000  0.0000  0.0000  0.0000  0.0000 </r>
       </set>
       <set comment="band 6">
        <r>  0.0074  0.0200  0.0000  0.0047  0.0000  0.0000  0.0000  0.0000  0.0000 </r>
        <r>  0.0074  0.0200  0.0000  0.0047  0.0000  0.0000  0.0000  0.0000  0.0000 </r>
       </set>
       <set comment="band 7">
        <r>  0.1338  0.0360  0.0000  0.0551  0.0000  0.0000  0.0000  0.0000  0.0000 </r>
        <r>  0.1338  0.0360  0.0000  0.0551  0.0000  0.0000  0.0000  0.0000  0.0000 </r>
       </set>
       <set comment="band 8">
        <r>  0.0000  0.0000  0.0193  0.0000  0.0000  0.0000  0.0000  0.0000  0.0000 </r>
        <r>  0.0000  0.0000  0.0193  0.0000  0.0000  0.0000  0.0000  0.0000  0.0000 </r>
       </set>
       <set comment="band 9">
        <r>  0.0008  0.0004  0.0000  0.0002  0.0000  0.0000  0.0000  0.0000  0.0000 </r>
        <r>  0.0008  0.0004  0.0000  0.0002  0.0000  0.0000  0.0000  0.0000  0.0000 </r>
       </set>
       <set comment="band 10">
        <r>  0.0000  0.0000  0.0111  0.0000  0.0000  0.0000  0.0000  0.0000  0.0000 </r>
        <r>  0.0000  0.0000  0.0111  0.0000  0.0000  0.0000  0.0000  0.0000  0.0000 </r>
       </set>
       <set comment="band 11">
        <r>  0.0023  0.0025  0.0000  0.0007  0.0000  0.0000  0.0000  0.0000  0.0000 </r>
        <r>  0.0023  0.0025  0.0000  0.0007  0.0000  0.0000  0.0000  0.0000  0.0000 </r>
       </set>
       <set comment="band 12">
        <r>  0.0000  0.0000  0.0217  0.0000  0.0000  0.0000  0.0000  0.0000  0.0000 </r>
        <r>  0.0000  0.0000  0.0217  0.0000  0.0000  0.0000  0.0000  0.0000  0.0000 </r>
       </set>
       <set comment="band 13">
        <r>  0.0024  0.0072  0.0000  0.0036  0.0000  0.0000  0.0000  0.0000  0.0000 </r>
        <r>  0.0024  0.0072  0.0000  0.0036  0.0000  0.0000  0.0000  0.0000  0.0000 </r>
       </set>
       <set comment="band 14">
        <r>  0.0125  0.0785  0.0000  0.0396  0.0000  0.0000  0.0000  0.0000  0.0000 </r>
        <r>  0.0125  0.0785  0.0000  0.0396  0.0000  0.0000  0.0000  0.0000  0.0000 </r>
       </set>
       <set comment="band 15">
        <r>  0.0000  0.0000  0.0200  0.0000  0.0000  0.0000  0.0000  0.0000  0.0000 </r>
        <r>  0.0000  0.0000  0.0200  0.0000  0.0000  0.0000  0.0000  0.0000  0.0000 </r>
       </set>
       <set comment="band 16">
        <r>  0.0000  0.0000  0.0148  0.0000  0.0000  0.0000  0.0000  0.0000  0.0000 </r>
        <r>  0.0000  0.0000  0.0148  0.0000  0.0000  0.0000  0.0000  0.0000  0.0000 </r>
       </set>
      </set>
      <set comment="kpoint 113">
       <set comment="band 1">
        <r>  0.2653  0.0802  0.0000  0.0018  0.0000  0.0000  0.0000  0.0000  0.0000 </r>
        <r>  0.2653  0.0802  0.0000  0.0018  0.0000  0.0000  0.0000  0.0000  0.0000 </r>
       </set>
       <set comment="band 2">
        <r>  0.1676  0.1837  0.0000  0.0009  0.0000  0.0000  0.0000  0.0000  0.0000 </r>
        <r>  0.1676  0.1837  0.0000  0.0009  0.0000  0.0000  0.0000  0.0000  0.0000 </r>
       </set>
       <set comment="band 3">
        <r>  0.0096  0.0021  0.0000  0.3751  0.0000  0.0000  0.0000  0.0000  0.0000 </r>
        <r>  0.0096  0.0021  0.0000  0.3751  0.0000  0.0000  0.0000  0.0000  0.0000 </r>
       </set>
       <set comment="band 4">
        <r>  0.0000  0.0000  0.2459  0.0000  0.0000  0.0000  0.0000  0.0000  0.0000 </r>
        <r>  0.0000  0.0000  0.2459  0.0000  0.0000  0.0000  0.0000  0.0000  0.0000 </r>
       </set>
       <set comment="band 5">
        <r>  0.0000  0.0000  0.2414  0.0000  0.0000  0.0000  0.0000  0.0000  0.0000 </r>
        <r>  0.0000  0.0000  0.2414  0.0000  0.0000  0.0000  0.0000  0.0000  0.0000 </r>
       </set>
       <set comment="band 6">
        <r>  0.1680  0.0459  0.0000  0.0177  0.0000  0.0000  0.0000  0.0000  0.0000 </r>
        <r>  0.1680  0.0459  0.0000  0.0177  0.0000  0.0000  0.0000  0.0000  0.0000 </r>
       </set>
       <set comment="band 7">
        <r>  0.0072  0.0072  0.0000  0.0004  0.0000  0.0000  0.0000  0.0000  0.0000 </r>
        <r>  0.0072  0.0072  0.0000  0.0004  0.0000  0.0000  0.0000  0.0000  0.0000 </r>
       </set>
       <set comment="band 8">
        <r>  0.0000  0.0000  0.0200  0.0000  0.0000  0.0000  0.0000  0.0000  0.0000 </r>
        <r>  0.0000  0.0000  0.0200  0.0000  0.0000  0.0000  0.0000  0.0000  0.0000 </r>
       </set>
       <set comment="band 9">
        <r>  0.0004  0.0007  0.0000  0.0000  0.0000  0.0000  0.0000  0.0000  0.0000 </r>
        <r>  0.0004  0.0007  0.0000  0.0000  0.0000  0.0000  0.0000  0.0000  0.0000 </r>
       </set>
       <set comment="band 10">
        <r>  0.0000  0.0000  0.0122  0.0000  0.0000  0.0000  0.0000  0.0000  0.0000 </r>
        <r>  0.0000  0.0000  0.0122  0.0000  0.0000  0.0000  0.0000  0.0000  0.0000 </r>
       </set>
       <set comment="band 11">
        <r>  0.0017  0.0036  0.0000  0.0002  0.0000  0.0000  0.0000  0.0000  0.0000 </r>
        <r>  0.0017  0.0036  0.0000  0.0002  0.0000  0.0000  0.0000  0.0000  0.0000 </r>
       </set>
       <set comment="band 12">
        <r>  0.0000  0.0000  0.0298  0.0000  0.0000  0.0000  0.0000  0.0000  0.0000 </r>
        <r>  0.0000  0.0000  0.0298  0.0000  0.0000  0.0000  0.0000  0.0000  0.0000 </r>
       </set>
       <set comment="band 13">
        <r>  0.0001  0.0346  0.0000  0.0026  0.0000  0.0000  0.0000  0.0000  0.0000 </r>
        <r>  0.0001  0.0346  0.0000  0.0026  0.0000  0.0000  0.0000  0.0000  0.0000 </r>
       </set>
       <set comment="band 14">
        <r>  0.0018  0.0072  0.0000  0.0004  0.0000  0.0000  0.0000  0.0000  0.0000 </r>
        <r>  0.0018  0.0072  0.0000  0.0004  0.0000  0.0000  0.0000  0.0000  0.0000 </r>
       </set>
       <set comment="band 15">
        <r>  0.0000  0.0000  0.0249  0.0000  0.0000  0.0000  0.0000  0.0000  0.0000 </r>
        <r>  0.0000  0.0000  0.0249  0.0000  0.0000  0.0000  0.0000  0.0000  0.0000 </r>
       </set>
       <set comment="band 16">
        <r>  0.0000  0.0028  0.0000  0.0004  0.0000  0.0000  0.0000  0.0000  0.0000 </r>
        <r>  0.0000  0.0028  0.0000  0.0004  0.0000  0.0000  0.0000  0.0000  0.0000 </r>
       </set>
      </set>
     </set>
    </set>
   </array>
  </projected>
 </calculation>
 <structure name="finalpos" >
  <crystal>
   <varray name="basis" >
    <v>       2.46810000       0.00000000       0.00000000 </v>
    <v>      -1.23000000       2.13000000       0.00000000 </v>
    <v>       0.00000000       0.00000000      20.00000000 </v>
   </varray>
   <i name="volume">    105.14106000 </i>
   <varray name="rec_basis" >
    <v>       0.40516997       0.23397139       0.00000000 </v>
    <v>       0.00000000       0.46948357       0.00000000 </v>
    <v>       0.00000000       0.00000000       0.05000000 </v>
   </varray>
  </crystal>
  <varray name="positions" >
   <v>       0.33338056       0.66671353       0.50000000 </v>
   <v>       0.66661944       0.33328647       0.50000000 </v>
  </varray>
 </structure>
</modeling>
